   1   1   0   0
  0.9112500E+02  0.4500000E-09  0.4500000E-09  0.4500000E-09  0.5000000E-15
  1.000000000000000E-004
  CAR 
 Silicon                                 
     24.70565104     -5.14846752  301      8.04849900      1.00000000
     -5.148  0.0000E+00  0.0000E+00
     -5.049  0.0000E+00  0.0000E+00
     -4.949  0.0000E+00  0.0000E+00
     -4.850  0.0000E+00  0.0000E+00
     -4.750  0.0000E+00  0.0000E+00
     -4.651  0.0000E+00  0.0000E+00
     -4.551  0.0000E+00  0.0000E+00
     -4.452  0.0000E+00  0.0000E+00
     -4.352  0.5299E-16  0.5274E-17
     -4.253  0.1709E-11  0.1701E-12
     -4.153  0.7773E-08  0.7737E-09
     -4.054  0.5194E-05  0.5176E-06
     -3.954  0.5295E-03  0.5321E-04
     -3.855  0.8773E-02  0.9262E-03
     -3.755  0.2564E-01  0.3478E-02
     -3.656  0.1391E-01  0.4863E-02
     -3.556  0.1359E-02  0.4998E-02
     -3.457  0.2204E-04  0.5000E-02
     -3.357  0.5535E-07  0.5000E-02
     -3.258  0.2059E-10  0.5000E-02
     -3.158  0.1104E-14  0.5000E-02
     -3.059  0.0000E+00  0.5000E-02
     -2.959  0.0000E+00  0.5000E-02
     -2.860  0.0000E+00  0.5000E-02
     -2.760  0.0000E+00  0.5000E-02
     -2.661  0.0000E+00  0.5000E-02
     -2.561  0.0000E+00  0.5000E-02
     -2.462  0.0000E+00  0.5000E-02
     -2.362  0.0000E+00  0.5000E-02
     -2.263  0.0000E+00  0.5000E-02
     -2.163  0.0000E+00  0.5000E-02
     -2.064  0.0000E+00  0.5000E-02
     -1.964  0.0000E+00  0.5000E-02
     -1.865  0.0000E+00  0.5000E-02
     -1.765  0.0000E+00  0.5000E-02
     -1.665  0.0000E+00  0.5000E-02
     -1.566  0.1866E-12  0.5000E-02
     -1.466  0.1641E-08  0.5000E-02
     -1.367  0.2101E-05  0.5000E-02
     -1.267  0.4043E-03  0.5040E-02
     -1.168  0.1233E-01  0.6268E-02
     -1.068  0.6455E-01  0.1269E-01
     -0.969  0.6213E-01  0.1887E-01
     -0.869  0.1098E-01  0.1997E-01
     -0.770  0.3313E-03  0.2000E-01
     -0.670  0.1581E-05  0.2000E-01
     -0.571  0.1131E-08  0.2000E-01
     -0.471  0.1178E-12  0.2000E-01
     -0.372  0.0000E+00  0.2000E-01
     -0.272  0.0000E+00  0.2000E-01
     -0.173  0.0000E+00  0.2000E-01
     -0.073  0.0000E+00  0.2000E-01
      0.026  0.0000E+00  0.2000E-01
      0.126  0.0000E+00  0.2000E-01
      0.225  0.0000E+00  0.2000E-01
      0.325  0.0000E+00  0.2000E-01
      0.424  0.0000E+00  0.2000E-01
      0.524  0.0000E+00  0.2000E-01
      0.623  0.0000E+00  0.2000E-01
      0.723  0.0000E+00  0.2000E-01
      0.822  0.0000E+00  0.2000E-01
      0.922  0.0000E+00  0.2000E-01
      1.021  0.0000E+00  0.2000E-01
      1.121  0.5759E-13  0.2000E-01
      1.220  0.6335E-09  0.2000E-01
      1.320  0.1013E-05  0.2000E-01
      1.419  0.2421E-03  0.2002E-01
      1.519  0.9104E-02  0.2093E-01
      1.618  0.5818E-01  0.2672E-01
      1.718  0.6800E-01  0.3349E-01
      1.817  0.1466E-01  0.3495E-01
      1.917  0.5452E-03  0.3500E-01
      2.017  0.3231E-05  0.3500E-01
      2.116  0.2885E-08  0.3500E-01
      2.216  0.3759E-12  0.3500E-01
      2.315  0.0000E+00  0.3500E-01
      2.415  0.0000E+00  0.3500E-01
      2.514  0.0000E+00  0.3500E-01
      2.614  0.0000E+00  0.3500E-01
      2.713  0.0000E+00  0.3500E-01
      2.813  0.0000E+00  0.3500E-01
      2.912  0.0000E+00  0.3500E-01
      3.012  0.0000E+00  0.3500E-01
      3.111  0.0000E+00  0.3500E-01
      3.211  0.0000E+00  0.3500E-01
      3.310  0.0000E+00  0.3500E-01
      3.410  0.0000E+00  0.3500E-01
      3.509  0.0000E+00  0.3500E-01
      3.609  0.0000E+00  0.3500E-01
      3.708  0.9483E-16  0.3500E-01
      3.808  0.2731E-11  0.3500E-01
      3.907  0.1128E-07  0.3500E-01
      4.007  0.6848E-05  0.3500E-01
      4.106  0.6362E-03  0.3506E-01
      4.206  0.9642E-02  0.3602E-01
      4.305  0.2588E-01  0.3860E-01
      4.405  0.1290E-01  0.3988E-01
      4.504  0.1190E-02  0.4000E-01
      4.604  0.2787E-02  0.4028E-01
      4.703  0.3481E-01  0.4374E-01
      4.803  0.7811E-01  0.5152E-01
      4.902  0.3256E-01  0.5476E-01
      5.002  0.2416E-02  0.5500E-01
      5.101  0.2941E-04  0.5500E-01
      5.201  0.5492E-07  0.5500E-01
      5.300  0.1512E-10  0.5500E-01
      5.400  0.6024E-15  0.5500E-01
      5.500  0.0000E+00  0.5500E-01
      5.599  0.0000E+00  0.5500E-01
      5.699  0.0000E+00  0.5500E-01
      5.798  0.0000E+00  0.5500E-01
      5.898  0.0000E+00  0.5500E-01
      5.997  0.1088E-15  0.5500E-01
      6.097  0.3575E-11  0.5500E-01
      6.196  0.1750E-07  0.5500E-01
      6.296  0.1258E-04  0.5500E-01
      6.395  0.1377E-02  0.5514E-01
      6.495  0.2442E-01  0.5757E-01
      6.594  0.7616E-01  0.6515E-01
      6.694  0.4408E-01  0.6953E-01
      6.793  0.4603E-02  0.6999E-01
      6.893  0.8010E-04  0.7000E-01
      6.992  0.2162E-06  0.7000E-01
      7.092  0.8656E-10  0.7000E-01
      7.191  0.5020E-14  0.7000E-01
      7.291  0.0000E+00  0.7000E-01
      7.390  0.0000E+00  0.7000E-01
      7.490  0.6008E-14  0.7000E-01
      7.589  0.1004E-09  0.7000E-01
      7.689  0.2427E-06  0.7000E-01
      7.788  0.8710E-04  0.7001E-01
      7.888  0.4853E-02  0.7049E-01
      7.987  0.4512E-01  0.7498E-01
      8.087  0.7577E-01  0.8252E-01
      8.186  0.2360E-01  0.8487E-01
      8.286  0.1291E-02  0.8500E-01
      8.385  0.1144E-04  0.8500E-01
      8.485  0.8665E-06  0.8500E-01
      8.584  0.1901E-03  0.8502E-01
      8.684  0.6693E-02  0.8569E-01
      8.783  0.4017E-01  0.8968E-01
      8.883  0.4418E-01  0.9408E-01
      8.982  0.8946E-02  0.9497E-01
      9.082  0.3117E-03  0.9500E-01
      9.182  0.1726E-05  0.9500E-01
      9.281  0.1438E-08  0.9500E-01
      9.381  0.1746E-12  0.9500E-01
      9.480  0.0000E+00  0.9500E-01
      9.580  0.0000E+00  0.9500E-01
      9.679  0.0000E+00  0.9500E-01
      9.779  0.0000E+00  0.9500E-01
      9.878  0.0000E+00  0.9500E-01
      9.978  0.0000E+00  0.9500E-01
     10.077  0.0000E+00  0.9500E-01
     10.177  0.0000E+00  0.9500E-01
     10.276  0.0000E+00  0.9500E-01
     10.376  0.0000E+00  0.9500E-01
     10.475  0.0000E+00  0.9500E-01
     10.575  0.0000E+00  0.9500E-01
     10.674  0.0000E+00  0.9500E-01
     10.774  0.0000E+00  0.9500E-01
     10.873  0.0000E+00  0.9500E-01
     10.973  0.0000E+00  0.9500E-01
     11.072  0.0000E+00  0.9500E-01
     11.172  0.0000E+00  0.9500E-01
     11.271  0.6136E-16  0.9500E-01
     11.371  0.2064E-11  0.9500E-01
     11.470  0.1041E-07  0.9500E-01
     11.570  0.7699E-05  0.9500E-01
     11.669  0.8667E-03  0.9509E-01
     11.769  0.1579E-01  0.9666E-01
     11.868  0.5054E-01  0.1017E+00
     11.968  0.3001E-01  0.1047E+00
     12.067  0.3219E-02  0.1050E+00
     12.167  0.2379E-03  0.1050E+00
     12.266  0.4864E-02  0.1055E+00
     12.366  0.2264E-01  0.1078E+00
     12.465  0.1943E-01  0.1097E+00
     12.565  0.3050E-02  0.1100E+00
     12.664  0.8138E-04  0.1100E+00
     12.764  0.3416E-06  0.1100E+00
     12.864  0.2145E-09  0.1100E+00
     12.963  0.1957E-13  0.1100E+00
     13.063  0.0000E+00  0.1100E+00
     13.162  0.9204E-16  0.1100E+00
     13.262  0.3176E-11  0.1100E+00
     13.361  0.1593E-07  0.1100E+00
     13.461  0.1172E-04  0.1100E+00
     13.560  0.1313E-02  0.1101E+00
     13.660  0.2382E-01  0.1125E+00
     13.759  0.7677E-01  0.1201E+00
     13.859  0.6420E-01  0.1265E+00
     13.958  0.7775E-01  0.1343E+00
     14.058  0.5101E-01  0.1393E+00
     14.157  0.6459E-02  0.1400E+00
     14.257  0.1379E-03  0.1400E+00
     14.356  0.5464E-04  0.1400E+00
     14.456  0.2384E-02  0.1402E+00
     14.555  0.1769E-01  0.1420E+00
     14.655  0.2389E-01  0.1444E+00
     14.754  0.5968E-02  0.1450E+00
     14.854  0.2592E-03  0.1450E+00
     14.953  0.1804E-05  0.1450E+00
     15.053  0.1899E-08  0.1450E+00
     15.152  0.2923E-12  0.1450E+00
     15.252  0.5578E-17  0.1450E+00
     15.351  0.0000E+00  0.1450E+00
     15.451  0.4198E-13  0.1450E+00
     15.550  0.4540E-09  0.1450E+00
     15.650  0.7137E-06  0.1450E+00
     15.749  0.1679E-03  0.1450E+00
     15.849  0.6215E-02  0.1456E+00
     15.948  0.3912E-01  0.1495E+00
     16.048  0.4506E-01  0.1540E+00
     16.147  0.9569E-02  0.1550E+00
     16.247  0.4001E-03  0.1550E+00
     16.346  0.3398E-02  0.1553E+00
     16.446  0.3836E-01  0.1592E+00
     16.546  0.7771E-01  0.1669E+00
     16.645  0.2924E-01  0.1698E+00
     16.745  0.1949E-02  0.1700E+00
     16.844  0.2121E-04  0.1700E+00
     16.944  0.3532E-07  0.1700E+00
     17.043  0.8653E-11  0.1700E+00
     17.143  0.3012E-15  0.1700E+00
     17.242  0.0000E+00  0.1700E+00
     17.342  0.0000E+00  0.1700E+00
     17.441  0.0000E+00  0.1700E+00
     17.541  0.0000E+00  0.1700E+00
     17.640  0.1153E-13  0.1700E+00
     17.740  0.1711E-09  0.1700E+00
     17.839  0.3677E-06  0.1700E+00
     17.939  0.1175E-03  0.1700E+00
     18.038  0.5853E-02  0.1706E+00
     18.138  0.4889E-01  0.1755E+00
     18.237  0.7406E-01  0.1828E+00
     18.337  0.2078E-01  0.1849E+00
     18.436  0.1019E-02  0.1850E+00
     18.536  0.8053E-05  0.1850E+00
     18.635  0.9654E-08  0.1850E+00
     18.735  0.1695E-11  0.1850E+00
     18.834  0.3347E-16  0.1850E+00
     18.934  0.0000E+00  0.1850E+00
     19.033  0.0000E+00  0.1850E+00
     19.133  0.0000E+00  0.1850E+00
     19.232  0.0000E+00  0.1850E+00
     19.332  0.0000E+00  0.1850E+00
     19.431  0.0000E+00  0.1850E+00
     19.531  0.0000E+00  0.1850E+00
     19.630  0.0000E+00  0.1850E+00
     19.730  0.0000E+00  0.1850E+00
     19.829  0.0000E+00  0.1850E+00
     19.929  0.0000E+00  0.1850E+00
     20.029  0.0000E+00  0.1850E+00
     20.128  0.0000E+00  0.1850E+00
     20.228  0.0000E+00  0.1850E+00
     20.327  0.0000E+00  0.1850E+00
     20.427  0.0000E+00  0.1850E+00
     20.526  0.0000E+00  0.1850E+00
     20.626  0.0000E+00  0.1850E+00
     20.725  0.0000E+00  0.1850E+00
     20.825  0.9277E-13  0.1850E+00
     20.924  0.9323E-09  0.1850E+00
     21.024  0.1363E-05  0.1850E+00
     21.123  0.2985E-03  0.1850E+00
     21.223  0.1032E-01  0.1861E+00
     21.322  0.6083E-01  0.1921E+00
     21.422  0.6587E-01  0.1987E+00
     21.521  0.1886E-01  0.2005E+00
     21.621  0.4907E-01  0.2054E+00
     21.720  0.7420E-01  0.2128E+00
     21.820  0.2098E-01  0.2149E+00
     21.919  0.1039E-02  0.2150E+00
     22.019  0.3035E-03  0.2150E+00
     22.118  0.8670E-02  0.2159E+00
     22.218  0.4376E-01  0.2202E+00
     22.317  0.4064E-01  0.2243E+00
     22.417  0.6922E-02  0.2250E+00
     22.516  0.2011E-03  0.2250E+00
     22.616  0.9222E-06  0.2250E+00
     22.715  0.6337E-09  0.2250E+00
     22.815  0.6667E-13  0.2250E+00
     22.914  0.6176E-10  0.2250E+00
     23.014  0.1660E-06  0.2250E+00
     23.113  0.6613E-04  0.2250E+00
     23.213  0.4077E-02  0.2254E+00
     23.312  0.4174E-01  0.2296E+00
     23.412  0.7693E-01  0.2372E+00
     23.511  0.2632E-01  0.2398E+00
     23.611  0.1588E-02  0.2400E+00
     23.711  0.1558E-04  0.2400E+00
     23.810  0.2332E-07  0.2400E+00
     23.910  0.5127E-11  0.2400E+00
     24.009  0.1673E-15  0.2400E+00
     24.109  0.0000E+00  0.2400E+00
     24.208  0.0000E+00  0.2400E+00
     24.308  0.0000E+00  0.2400E+00
     24.407  0.0000E+00  0.2400E+00
     24.507  0.0000E+00  0.2400E+00
     24.606  0.0000E+00  0.2400E+00
     24.706  0.0000E+00  0.2400E+00
