    1    1   50    1
  0.9112500E+02  0.4500000E-09  0.4500000E-09  0.4500000E-09  0.5000000E-15
  1.000000000000000E-004
  CAR 
 Silicon                                 
      4      4      6
 
  0.1250000E+00  0.1250000E+00  0.1250000E+00  0.1250000E+00
      1         -3.791462   1.000000
      2         11.837509   0.000000
      3         11.837509   0.000000
      4         14.573072   0.000000
      5         22.213433   0.000000
      6         22.213433   0.000000
 
  0.3750000E+00  0.1250000E+00  0.1250000E+00  0.3750000E+00
      1         -1.070671   1.000000
      2          4.751182   1.000000
      3         13.936867   0.000000
      4         16.487777   0.000000
      5         21.326793   0.000000
      6         21.645758   0.000000
 
  0.3750000E+00  0.3750000E+00  0.1250000E+00  0.3750000E+00
      1          1.627712   1.000000
      2          6.561773   1.000000
      3          8.018042   0.666667
      4         13.728005   0.000000
      5         18.162340   0.000000
      6         23.348646   0.000000
 
  0.3750000E+00  0.3750000E+00  0.3750000E+00  0.1250000E+00
      1          4.264155   1.000000
      2          8.789088   0.000000
      3          8.789088   0.000000
      4         12.356891   0.000000
      5         15.956824   0.000000
      6         15.956824   0.000000
