       N       E                     dE             d eps       ncg     rms          rms(c)
DAV:   1     0.244320429637E+01    0.24432E+01   -0.83270E+02    48   0.319E+02
DAV:   2    -0.124091568444E+01   -0.36841E+01   -0.36478E+01    54   0.327E+01
DAV:   3    -0.141156139441E+01   -0.17065E+00   -0.17012E+00    66   0.645E+00
DAV:   4    -0.141355526859E+01   -0.19939E-02   -0.19929E-02    78   0.861E-01
DAV:   5    -0.141355599641E+01   -0.72782E-06   -0.72797E-06    66   0.202E-02    0.569E-01
DAV:   6    -0.139178842871E+01    0.21768E-01   -0.26357E-02    48   0.651E-01    0.308E-01
DAV:   7    -0.138398376435E+01    0.78047E-02   -0.37820E-02    48   0.796E-01    0.723E-02
DAV:   8    -0.138450286795E+01   -0.51910E-03   -0.77603E-04    54   0.149E-01    0.122E-02
DAV:   9    -0.138450561320E+01   -0.27452E-05   -0.24694E-05    66   0.259E-02
   1 F= -.13845056E+01 E0= -.13711000E+01  d E =-.138451E+01
       N       E                     dE             d eps       ncg     rms          rms(c)
DAV:   1    -0.267013092279E+01   -0.12856E+01   -0.17432E+01    48   0.200E+01    0.275E+00
DAV:   2    -0.219751554557E+01    0.47262E+00   -0.53592E-01    54   0.349E+00    0.145E+00
DAV:   3    -0.201297632285E+01    0.18454E+00   -0.62889E-01    48   0.319E+00    0.142E-01
DAV:   4    -0.201215289391E+01    0.82343E-03   -0.47305E-03    60   0.559E-01    0.485E-02
DAV:   5    -0.201203145326E+01    0.12144E-03   -0.12956E-04    48   0.884E-02    0.939E-03
DAV:   6    -0.201204305673E+01   -0.11603E-04   -0.75510E-06    54   0.193E-02    0.616E-03
DAV:   7    -0.201204289277E+01    0.16396E-06   -0.27896E-06    48   0.879E-03
   2 F= -.20120429E+01 E0= -.20006646E+01  d E =-.627537E+00
       N       E                     dE             d eps       ncg     rms          rms(c)
DAV:   1    -0.578808484982E+01   -0.37760E+01   -0.67786E+01    48   0.442E+01    0.540E+00
DAV:   2    -0.425299837142E+01    0.15351E+01   -0.12992E+00    54   0.622E+00    0.297E+00
DAV:   3    -0.358466463194E+01    0.66833E+00   -0.18043E+00    48   0.589E+00    0.267E-01
DAV:   4    -0.358117656816E+01    0.34881E-02   -0.11582E-02    48   0.101E+00    0.801E-02
DAV:   5    -0.358078811316E+01    0.38846E-03   -0.30829E-04    72   0.151E-01    0.132E-02
DAV:   6    -0.358079027733E+01   -0.21642E-05   -0.88980E-06    54   0.192E-02
   3 F= -.35807903E+01 E0= -.35677823E+01  d E =-.219628E+01
       N       E                     dE             d eps       ncg     rms          rms(c)
DAV:   1    -0.979721785623E+01   -0.62164E+01   -0.55195E+02    72   0.182E+02    0.158E+01
DAV:   2    -0.343659304687E+01    0.63606E+01   -0.19276E+00    66   0.125E+01    0.941E+00
DAV:   3     0.113752558288E+00    0.35503E+01   -0.40471E+00    60   0.135E+01    0.846E-01
DAV:   4     0.121387503575E+00    0.76349E-02   -0.59767E-02    60   0.201E+00    0.405E-01
DAV:   5     0.127906674317E+00    0.65192E-02   -0.10907E-02    48   0.711E-01    0.130E-02
DAV:   6     0.127903879308E+00   -0.27950E-05   -0.73293E-05    66   0.968E-02
   4 F= 0.12790388E+00 E0= 0.13754527E+00  d E =0.151241E+01
       N       E                     dE             d eps       ncg     rms          rms(c)
DAV:   1    -0.852329651049E+01   -0.86512E+01   -0.15102E+02    60   0.462E+01    0.732E+00
DAV:   2    -0.586422630090E+01    0.26591E+01   -0.27082E+00    48   0.111E+01    0.441E+00
DAV:   3    -0.414839232773E+01    0.17158E+01   -0.46488E+00    48   0.102E+01    0.754E-01
DAV:   4    -0.412847077586E+01    0.19922E-01   -0.82212E-02    60   0.180E+00    0.268E-01
DAV:   5    -0.412560342643E+01    0.28673E-02   -0.16046E-03    54   0.375E-01    0.572E-02
DAV:   6    -0.412536690777E+01    0.23652E-03   -0.40657E-04    66   0.953E-02    0.162E-02
DAV:   7    -0.412532734123E+01    0.39567E-04   -0.11393E-05    48   0.264E-02    0.119E-03
DAV:   8    -0.412532734849E+01   -0.72611E-08   -0.17854E-07    42   0.354E-03
   5 F= -.41253273E+01 E0= -.41154878E+01  d E =-.274082E+01
       N       E                     dE             d eps       ncg     rms          rms(c)
DAV:   1    -0.723946869335E+01   -0.31141E+01   -0.69842E+01    48   0.497E+01    0.546E+00
DAV:   2    -0.611941586587E+01    0.11201E+01   -0.64722E-01    60   0.604E+00    0.313E+00
DAV:   3    -0.555440666645E+01    0.56501E+00   -0.98599E-01    60   0.519E+00    0.234E-01
DAV:   4    -0.555171778379E+01    0.26889E-02   -0.39321E-03    72   0.578E-01    0.558E-02
DAV:   5    -0.555160572356E+01    0.11206E-03   -0.37362E-05    54   0.595E-02    0.764E-03
DAV:   6    -0.555160231917E+01    0.34044E-05   -0.33665E-07    42   0.598E-03
   6 F= -.55516023E+01 E0= -.55419609E+01  d E =-.416710E+01
       N       E                     dE             d eps       ncg     rms          rms(c)
DAV:   1    -0.556678431124E+01   -0.15179E-01   -0.12916E+00    54   0.658E+00    0.737E-01
DAV:   2    -0.554747430918E+01    0.19310E-01   -0.14354E-02    48   0.111E+00    0.422E-01
DAV:   3    -0.553732965573E+01    0.10145E-01   -0.16094E-02    66   0.691E-01    0.259E-02
DAV:   4    -0.553728842033E+01    0.41235E-04   -0.65258E-05    66   0.794E-02    0.107E-02
DAV:   5    -0.553728104331E+01    0.73770E-05   -0.19341E-06    30   0.123E-02
   7 F= -.55372810E+01 E0= -.55276396E+01  d E =-.415278E+01
       N       E                     dE             d eps       ncg     rms          rms(c)
DAV:   1    -0.557212551385E+01   -0.34837E-01   -0.49514E-01    60   0.393E+00    0.453E-01
DAV:   2    -0.556453364160E+01    0.75919E-02   -0.52350E-03    48   0.669E-01    0.259E-01
DAV:   3    -0.556054039720E+01    0.39932E-02   -0.65185E-03    60   0.433E-01    0.146E-02
DAV:   4    -0.556052573467E+01    0.14663E-04   -0.26496E-05    66   0.512E-02    0.673E-03
DAV:   5    -0.556052197551E+01    0.37592E-05   -0.73660E-07    24   0.802E-03
   8 F= -.55605220E+01 E0= -.55508806E+01  d E =-.417602E+01
       N       E                     dE             d eps       ncg     rms          rms(c)
DAV:   1    -0.556061765772E+01   -0.91923E-04   -0.13617E-03    60   0.208E-01    0.238E-02
DAV:   2    -0.556059668343E+01    0.20974E-04   -0.14183E-05    48   0.345E-02    0.136E-02
DAV:   3    -0.556058567828E+01    0.11005E-04   -0.17782E-05    54   0.226E-02    0.788E-04
DAV:   4    -0.556058563595E+01    0.42333E-07   -0.83947E-08    24   0.305E-03
   9 F= -.55605856E+01 E0= -.55509442E+01  d E =-.417608E+01
