 vasp.6.3.2 27Jun22 (build Dec 02 2024 22:47:12) complex                        
  
 executed on             LinuxIFC date 2024.12.12  20:39:43
 running on    1 total cores
 distrk:  each k-point on    1 cores,    1 groups
 distr:  one band on NCORE=   1 cores,    1 groups


--------------------------------------------------------------------------------------------------------


 INCAR:
   SYSTEM = Silicon
   ENCUT = 400
   ISMEAR = 0
   SIGMA = 0.1
   IBRION = 2
   NSW = 50
   EDIFF = 1E-5
   EDIFFG = -0.01
   ISIF = 3
   LWAVE = .FALSE.
   LCHARG = .FALSE.

 POTCAR:   PAW Si 02Apr1999                       
 POTCAR:   PAW Si 02Apr1999                       
   VRHFIN =Si: s2p2                                                                                 
   LEXCH  = CA                                                                                      
   EATOM  =   103.4338 eV,    7.6022 Ry                                                             
                                                                                                    
   TITEL  = PAW Si 02Apr1999                                                                        
   LULTRA =        F    use ultrasoft PP ?                                                          
   IUNSCR =        1    unscreen: 0-lin 1-nonlin 2-no                                               
   RPACOR =    1.500    partial core radius                                                         
   POMASS =   28.085; ZVAL   =    4.000    mass and valenz                                          
   RCORE  =    1.900    outmost cutoff radius                                                       
   RWIGS  =    2.480; RWIGS  =    1.312    wigner-seitz radius (au A)                               
   ENMAX  =  245.704; ENMIN  =  184.278 eV                                                          
   ICORE  =        2    local potential                                                             
   LCOR   =        T    correct aug charges                                                         
   LPAW   =        T    paw PP                                                                      
   EAUG   =  322.069                                                                                
   DEXC   =    -.006                                                                                
   RMAX   =    2.941    core radius for proj-oper                                                   
   RAUG   =    1.300    factor for augmentation sphere                                              
   RDEP   =    1.993    core radius for depl-charge                                                 
   QCUT   =   -4.250; QGAM   =    8.499    optimization parameters                                  
                                                                                                    
   Description                                                                                      
     l     E      TYP  RCUT    TYP  RCUT                                                            
     0   .000     23  1.900                                                                         
     0   .000     23  1.900                                                                         
     1   .000     23  1.900                                                                         
     1   .000     23  1.900                                                                         
     2   .000      7  1.900                                                                         
  local pseudopotential read in
  partial core-charges read in
  atomic valenz-charges read in
  non local Contribution for L=           0  read in
    real space projection operators read in
  non local Contribution for L=           0  read in
    real space projection operators read in
  non local Contribution for L=           1  read in
    real space projection operators read in
  non local Contribution for L=           1  read in
    real space projection operators read in
    PAW grid and wavefunctions read in
 
   number of l-projection  operators is LMAX  =           4
   number of lm-projection operators is LMMAX =           8
 
 PAW Si 02Apr1999                       :
 energy of atom  1       EATOM= -103.4338
 kinetic energy error for atom=    0.0011 (will be added to EATOM!!)
 
 
 POSCAR: Si
  positions in direct lattice
  No initial velocities read in
 exchange correlation table for  LEXCH =        2
   RHO(1)=    0.500       N(1)  =     2000
   RHO(2)=  100.500       N(2)  =     4000
 


--------------------------------------------------------------------------------------------------------


 ion  position               nearest neighbor table
   1  0.000  0.000  0.000-
 
  LATTYP: Found a simple cubic cell.
 ALAT       =     4.5000000000
  
  Lattice vectors:
  
 A1 = (   4.5000000000,   0.0000000000,   0.0000000000)
 A2 = (   0.0000000000,   4.5000000000,   0.0000000000)
 A3 = (   0.0000000000,   0.0000000000,   4.5000000000)


Analysis of symmetry for initial positions (statically):
=====================================================================
 Subroutine PRICEL returns:
 Original cell was already a primitive cell.
 

 Routine SETGRP: Setting up the symmetry group for a 
 simple cubic supercell.


 Subroutine GETGRP returns: Found 48 space group operations
 (whereof 48 operations were pure point group operations)
 out of a pool of 48 trial point group operations.


The static configuration has the point symmetry O_h .


Analysis of symmetry for dynamics (positions and initial velocities):
=====================================================================
 Subroutine PRICEL returns:
 Original cell was already a primitive cell.
 

 Routine SETGRP: Setting up the symmetry group for a 
 simple cubic supercell.


 Subroutine GETGRP returns: Found 48 space group operations
 (whereof 48 operations were pure point group operations)
 out of a pool of 48 trial point group operations.


The dynamic configuration has the point symmetry O_h .


 Subroutine INISYM returns: Found 48 space group operations
 (whereof 48 operations are pure point group operations),
 and found     1 'primitive' translations


----------------------------------------------------------------------------------------

                                     Primitive cell                                     

  volume of cell :      91.1250

  direct lattice vectors                    reciprocal lattice vectors
     4.500000000  0.000000000  0.000000000     0.222222222  0.000000000  0.000000000
     0.000000000  4.500000000  0.000000000     0.000000000  0.222222222  0.000000000
     0.000000000  0.000000000  4.500000000     0.000000000  0.000000000  0.222222222

  length of vectors
     4.500000000  4.500000000  4.500000000     0.222222222  0.222222222  0.222222222

  position of ions in fractional coordinates (direct lattice)
     0.000000000  0.000000000  0.000000000

  ion indices of the primitive-cell ions
   primitive index   ion index
                 1           1

----------------------------------------------------------------------------------------

 
 
 KPOINTS: KPOINTS                                 

Automatic generation of k-mesh.
 Grid dimensions read from file:
 generate k-points for:    4    4    4

 Generating k-lattice:

  Cartesian coordinates                     Fractional coordinates (reciprocal lattice)
     0.055555556  0.000000000  0.000000000     0.250000000  0.000000000  0.000000000
     0.000000000  0.055555556  0.000000000     0.000000000  0.250000000  0.000000000
     0.000000000  0.000000000  0.055555556     0.000000000  0.000000000  0.250000000

  Length of vectors
     0.055555556  0.055555556  0.055555556

  Shift w.r.t. Gamma in fractional coordinates (k-lattice)
     0.500000000  0.500000000  0.500000000

 
 Subroutine IBZKPT returns following result:
 ===========================================
 
 Found      4 irreducible k-points:
 
 Following reciprocal coordinates:
            Coordinates               Weight
  0.125000  0.125000  0.125000      8.000000
  0.375000  0.125000  0.125000     24.000000
  0.375000  0.375000  0.125000     24.000000
  0.375000  0.375000  0.375000      8.000000
 
 Following cartesian coordinates:
            Coordinates               Weight
  0.125000  0.125000  0.125000      8.000000
  0.375000  0.125000  0.125000     24.000000
  0.375000  0.375000  0.125000     24.000000
  0.375000  0.375000  0.375000      8.000000
 


--------------------------------------------------------------------------------------------------------




 Dimension of arrays:
   k-points           NKPTS =      4   k-points in BZ     NKDIM =      4   number of bands    NBANDS=      6
   number of dos      NEDOS =    301   number of ions     NIONS =      1
   non local maximal  LDIM  =      4   non local SUM 2l+1 LMDIM =      8
   total plane-waves  NPLWV =  13824
   max r-space proj   IRMAX =      1   max aug-charges    IRDMAX=   5271
   dimension x,y,z NGX =    24 NGY =   24 NGZ =   24
   dimension x,y,z NGXF=    48 NGYF=   48 NGZF=   48
   support grid    NGXF=    48 NGYF=   48 NGZF=   48
   ions per type =               1
   NGX,Y,Z   is equivalent  to a cutoff of   8.87,  8.87,  8.87 a.u.
   NGXF,Y,Z  is equivalent  to a cutoff of  17.73, 17.73, 17.73 a.u.

 SYSTEM =  Silicon                                 
 POSCAR =  Si                                      

 Startparameter for this run:
   NWRITE =      2    write-flag & timer
   PREC   = normal    normal or accurate (medium, high low for compatibility)
   ISTART =      0    job   : 0-new  1-cont  2-samecut
   ICHARG =      2    charge: 1-file 2-atom 10-const
   ISPIN  =      1    spin polarized calculation?
   LNONCOLLINEAR =      F non collinear calculations
   LSORBIT =      F    spin-orbit coupling
   INIWAV =      1    electr: 0-lowe 1-rand  2-diag
   LASPH  =      F    aspherical Exc in radial PAW
 Electronic Relaxation 1
   ENCUT  =  400.0 eV  29.40 Ry    5.42 a.u.   7.34  7.34  7.34*2*pi/ulx,y,z
   ENINI  =  400.0     initial cutoff
   ENAUG  =  322.1 eV  augmentation charge cutoff
   NELM   =     60;   NELMIN=  2; NELMDL=  0     # of ELM steps 
   EDIFF  = 0.1E-04   stopping-criterion for ELM
   LREAL  =      F    real-space projection
   NLSPLINE    = F    spline interpolate recip. space projectors
   LCOMPAT=      F    compatible to vasp.4.4
   GGA_COMPAT  = T    GGA compatible to vasp.4.4-vasp.4.6
   LMAXPAW     = -100 max onsite density
   LMAXMIX     =    2 max onsite mixed and CHGCAR
   VOSKOWN=      0    Vosko Wilk Nusair interpolation
   ROPT   =    0.00000
 Ionic relaxation
   EDIFFG = -.1E-01   stopping-criterion for IOM
   NSW    =     50    number of steps for IOM
   NBLOCK =      1;   KBLOCK =     50    inner block; outer block 
   IBRION =      2    ionic relax: 0-MD 1-quasi-New 2-CG
   NFREE  =      1    steps in history (QN), initial steepest desc. (CG)
   ISIF   =      3    stress and relaxation
   IWAVPR =     11    prediction:  0-non 1-charg 2-wave 3-comb
   ISYM   =      2    0-nonsym 1-usesym 2-fastsym
   LCORR  =      T    Harris-Foulkes like correction to forces

   POTIM  = 0.5000    time-step for ionic-motion
   TEIN   =    0.0    initial temperature
   TEBEG  =    0.0;   TEEND  =   0.0 temperature during run
   SMASS  =  -3.00    Nose mass-parameter (am)
   estimated Nose-frequenzy (Omega)   =  0.10E-29 period in steps = 0.13E+47 mass=  -0.463E-27a.u.
   SCALEE = 1.0000    scale energy and forces
   NPACO  =    256;   APACO  = 10.0  distance and # of slots for P.C.
   PSTRESS=    0.0 pullay stress

  Mass of Ions in am
   POMASS =  28.09
  Ionic Valenz
   ZVAL   =   4.00
  Atomic Wigner-Seitz radii
   RWIGS  =  -1.00
  virtual crystal weights 
   VCA    =   1.00
   NELECT =       4.0000    total number of electrons
   NUPDOWN=      -1.0000    fix difference up-down

 DOS related values:
   EMIN   =  10.00;   EMAX   =-10.00  energy-range for DOS
   EFERMI =   0.00
   ISMEAR =     0;   SIGMA  =   0.10  broadening in eV -4-tet -1-fermi 0-gaus

 Electronic relaxation 2 (details)
   IALGO  =     38    algorithm
   LDIAG  =      T    sub-space diagonalisation (order eigenvalues)
   LSUBROT=      F    optimize rotation matrix (better conditioning)
   TURBO    =      0    0=normal 1=particle mesh
   IRESTART =      0    0=no restart 2=restart with 2 vectors
   NREBOOT  =      0    no. of reboots
   NMIN     =      0    reboot dimension
   EREF     =   0.00    reference energy to select bands
   IMIX   =      4    mixing-type and parameters
     AMIX     =   0.40;   BMIX     =  1.00
     AMIX_MAG =   1.60;   BMIX_MAG =  1.00
     AMIN     =   0.10
     WC   =   100.;   INIMIX=   1;  MIXPRE=   1;  MAXMIX= -45

 Intra band minimization:
   WEIMIN = 0.0010     energy-eigenvalue tresh-hold
   EBREAK =  0.42E-06  absolut break condition
   DEPER  =   0.30     relativ break condition  

   TIME   =   0.40     timestep for ELM

  volume/ion in A,a.u.               =      91.12       614.94
  Fermi-wavevector in a.u.,A,eV,Ry     =   0.577496  1.091309  4.537565  0.333502
  Thomas-Fermi vector in A             =   1.620423
 
 Write flags
   LWAVE        =      F    write WAVECAR
   LDOWNSAMPLE  =      F    k-point downsampling of WAVECAR
   LCHARG       =      F    write CHGCAR
   LVTOT        =      F    write LOCPOT, total local potential
   LVHAR        =      F    write LOCPOT, Hartree potential only
   LELF         =      F    write electronic localiz. function (ELF)
   LORBIT       =      0    0 simple, 1 ext, 2 COOP (PROOUT), +10 PAW based schemes


 Dipole corrections
   LMONO  =      F    monopole corrections only (constant potential shift)
   LDIPOL =      F    correct potential (dipole corrections)
   IDIPOL =      0    1-x, 2-y, 3-z, 4-all directions 
   EPSILON=  1.0000000 bulk dielectric constant

 Exchange correlation treatment:
   GGA     =    --    GGA type
   LEXCH   =     2    internal setting for exchange type
   LIBXC   =     F    Libxc                    
   VOSKOWN =     0    Vosko Wilk Nusair interpolation
   LHFCALC =     F    Hartree Fock is set to
   LHFONE  =     F    Hartree Fock one center treatment
   AEXX    =    0.0000 exact exchange contribution

 Linear response parameters
   LEPSILON=     F    determine dielectric tensor
   LRPA    =     F    only Hartree local field effects (RPA)
   LNABLA  =     F    use nabla operator in PAW spheres
   LVEL    =     F    velocity operator in full k-point grid
   CSHIFT  =0.1000    complex shift for real part using Kramers Kronig
   OMEGAMAX=  -1.0    maximum frequency
   DEG_THRESHOLD= 0.2000000E-02 threshold for treating states as degnerate
   RTIME   =   -0.100 relaxation time in fs
  (WPLASMAI=    0.000 imaginary part of plasma frequency in eV, 0.658/RTIME)
   DFIELD  = 0.0000000 0.0000000 0.0000000 field for delta impulse in time
 
  Optional k-point grid parameters
   LKPOINTS_OPT  =     F    use optional k-point grid
   KPOINTS_OPT_MODE=     1    mode for optional k-point grid
 
 Orbital magnetization related:
   ORBITALMAG=     F  switch on orbital magnetization
   LCHIMAG   =     F  perturbation theory with respect to B field
   DQ        =  0.001000  dq finite difference perturbation B field
   LLRAUG    =     F  two centre corrections for induced B field



--------------------------------------------------------------------------------------------------------


 conjugate gradient relaxation of ions
 charge density and potential will be updated during run
 non-spin polarized calculation
 Variant of blocked Davidson
 Davidson routine will perform the subspace rotation
 perform sub-space diagonalisation
    after iterative eigenvector-optimisation
 modified Broyden-mixing scheme, WC =      100.0
 initial mixing is a Kerker type mixing with AMIX =  0.4000 and BMIX =      1.0000
 Hartree-type preconditioning will be used
 using additional bands            4
 reciprocal scheme for non local part
 use partial core corrections
 calculate Harris-corrections to forces 
   (improved forces if not selfconsistent)
 use of overlap-Matrix (Vanderbilt PP)
 Gauss-broadening in eV      SIGMA  =   0.10


--------------------------------------------------------------------------------------------------------


  energy-cutoff  :      400.00
  volume of cell :       91.12
      direct lattice vectors                 reciprocal lattice vectors
     4.500000000  0.000000000  0.000000000     0.222222222  0.000000000  0.000000000
     0.000000000  4.500000000  0.000000000     0.000000000  0.222222222  0.000000000
     0.000000000  0.000000000  4.500000000     0.000000000  0.000000000  0.222222222

  length of vectors
     4.500000000  4.500000000  4.500000000     0.222222222  0.222222222  0.222222222


 
 k-points in units of 2pi/SCALE and weight: KPOINTS                                 
   0.12500000  0.12500000  0.12500000       0.125
   0.37500000  0.12500000  0.12500000       0.375
   0.37500000  0.37500000  0.12500000       0.375
   0.37500000  0.37500000  0.37500000       0.125
 
 k-points in reciprocal lattice and weights: KPOINTS                                 
   0.12500000  0.12500000  0.12500000       0.125
   0.37500000  0.12500000  0.12500000       0.375
   0.37500000  0.37500000  0.12500000       0.375
   0.37500000  0.37500000  0.37500000       0.125
 
 position of ions in fractional coordinates (direct lattice) 
   0.00000000  0.00000000  0.00000000
 
 position of ions in cartesian coordinates  (Angst):
   0.00000000  0.00000000  0.00000000
 


--------------------------------------------------------------------------------------------------------


 k-point   1 :   0.1250 0.1250 0.1250  plane waves:    1671
 k-point   2 :   0.3750 0.1250 0.1250  plane waves:    1654
 k-point   3 :   0.3750 0.3750 0.1250  plane waves:    1653
 k-point   4 :   0.3750 0.3750 0.3750  plane waves:    1658

 maximum and minimum number of plane-waves per node :      1671     1653

 maximum number of plane-waves:      1671
 maximum index in each direction: 
   IXMAX=    7   IYMAX=    7   IZMAX=    7
   IXMIN=   -7   IYMIN=   -7   IZMIN=   -7


 serial   3D FFT for wavefunctions
 parallel 3D FFT for charge:
    minimum data exchange during FFTs selected (reduces bandwidth)


 total amount of memory used by VASP MPI-rank0    41035. kBytes
=======================================================================

   base      :      30000. kBytes
   nonl-proj :        454. kBytes
   fftplans  :       3916. kBytes
   grid      :       6018. kBytes
   one-center:          3. kBytes
   wavefun   :        644. kBytes
 
     INWAV:  cpu time      0.0000: real time      0.0006
 Broyden mixing: mesh for mixing (old mesh)
   NGX = 15   NGY = 15   NGZ = 15
  (NGX  = 48   NGY  = 48   NGZ  = 48)
  gives a total of   3375 points

 initial charge density was supplied:
 charge density of overlapping atoms calculated
 number of electron       4.0000000 magnetization 
 keeping initial charge density in first step


--------------------------------------------------------------------------------------------------------


 Maximum index for augmentation-charges         4945 (set IRDMAX)


--------------------------------------------------------------------------------------------------------


 First call to EWALD:  gamma=   0.394
 Maximum number of real-space cells 3x 3x 3
 Maximum number of reciprocal cells 3x 3x 3

    FEWALD:  cpu time      0.0005: real time      0.0043


--------------------------------------- Iteration      1(   1)  ---------------------------------------


    POTLOK:  cpu time      0.0161: real time      0.0251
    SETDIJ:  cpu time      0.0007: real time      0.0007
     EDDAV:  cpu time      0.0159: real time      0.0203
       DOS:  cpu time      0.0001: real time      0.0001
    --------------------------------------------
      LOOP:  cpu time      0.0328: real time      0.0462

 eigenvalue-minimisations  :    48
 total energy-change (2. order) : 0.2443204E+01  (-0.8326966E+02)
 number of electron       4.0000000 magnetization 
 augmentation part        4.0000000 magnetization 

 Free energy of the ion-electron system (eV)
  ---------------------------------------------------
  alpha Z        PSCENC =         0.26014233
  Ewald energy   TEWEN  =       -72.63374224
  -Hartree energ DENC   =       -18.17002148
  -exchange      EXHF   =         0.00000000
  -V(xc)+E(xc)   XCENC  =       -10.80384324
  PAW double counting   =        33.55897582      -16.14130609
  entropy T*S    EENTRO =        -0.01928293
  eigenvalues    EBANDS =       -17.04037425
  atomic energy  EATOM  =       103.43265638
  Solvation  Ediel_sol  =         0.00000000
  ---------------------------------------------------
  free energy    TOTEN  =         2.44320430 eV

  energy without entropy =        2.46248723  energy(sigma->0) =        2.45284576


--------------------------------------------------------------------------------------------------------




--------------------------------------- Iteration      1(   2)  ---------------------------------------


     EDDAV:  cpu time      0.0224: real time      0.0652
       DOS:  cpu time      0.0002: real time      0.0026
    --------------------------------------------
      LOOP:  cpu time      0.0225: real time      0.0678

 eigenvalue-minimisations  :    54
 total energy-change (2. order) :-0.3684120E+01  (-0.3647762E+01)
 number of electron       4.0000000 magnetization 
 augmentation part        4.0000000 magnetization 

 Free energy of the ion-electron system (eV)
  ---------------------------------------------------
  alpha Z        PSCENC =         0.26014233
  Ewald energy   TEWEN  =       -72.63374224
  -Hartree energ DENC   =       -18.17002148
  -exchange      EXHF   =         0.00000000
  -V(xc)+E(xc)   XCENC  =       -10.80384324
  PAW double counting   =        33.55897582      -16.14130609
  entropy T*S    EENTRO =        -0.02384173
  eigenvalues    EBANDS =       -20.71993543
  atomic energy  EATOM  =       103.43265638
  Solvation  Ediel_sol  =         0.00000000
  ---------------------------------------------------
  free energy    TOTEN  =        -1.24091568 eV

  energy without entropy =       -1.21707396  energy(sigma->0) =       -1.22899482


--------------------------------------------------------------------------------------------------------




--------------------------------------- Iteration      1(   3)  ---------------------------------------


     EDDAV:  cpu time      0.0175: real time      0.0175
       DOS:  cpu time      0.0001: real time      0.0001
    --------------------------------------------
      LOOP:  cpu time      0.0176: real time      0.0176

 eigenvalue-minimisations  :    66
 total energy-change (2. order) :-0.1706457E+00  (-0.1701185E+00)
 number of electron       4.0000000 magnetization 
 augmentation part        4.0000000 magnetization 

 Free energy of the ion-electron system (eV)
  ---------------------------------------------------
  alpha Z        PSCENC =         0.26014233
  Ewald energy   TEWEN  =       -72.63374224
  -Hartree energ DENC   =       -18.17002148
  -exchange      EXHF   =         0.00000000
  -V(xc)+E(xc)   XCENC  =       -10.80384324
  PAW double counting   =        33.55897582      -16.14130609
  entropy T*S    EENTRO =        -0.02555068
  eigenvalues    EBANDS =       -20.88887219
  atomic energy  EATOM  =       103.43265638
  Solvation  Ediel_sol  =         0.00000000
  ---------------------------------------------------
  free energy    TOTEN  =        -1.41156139 eV

  energy without entropy =       -1.38601071  energy(sigma->0) =       -1.39878605


--------------------------------------------------------------------------------------------------------




--------------------------------------- Iteration      1(   4)  ---------------------------------------


     EDDAV:  cpu time      0.0202: real time      0.0315
       DOS:  cpu time      0.0001: real time      0.0001
    --------------------------------------------
      LOOP:  cpu time      0.0204: real time      0.0316

 eigenvalue-minimisations  :    78
 total energy-change (2. order) :-0.1993874E-02  (-0.1992875E-02)
 number of electron       4.0000000 magnetization 
 augmentation part        4.0000000 magnetization 

 Free energy of the ion-electron system (eV)
  ---------------------------------------------------
  alpha Z        PSCENC =         0.26014233
  Ewald energy   TEWEN  =       -72.63374224
  -Hartree energ DENC   =       -18.17002148
  -exchange      EXHF   =         0.00000000
  -V(xc)+E(xc)   XCENC  =       -10.80384324
  PAW double counting   =        33.55897582      -16.14130609
  entropy T*S    EENTRO =        -0.02568425
  eigenvalues    EBANDS =       -20.89073249
  atomic energy  EATOM  =       103.43265638
  Solvation  Ediel_sol  =         0.00000000
  ---------------------------------------------------
  free energy    TOTEN  =        -1.41355527 eV

  energy without entropy =       -1.38787102  energy(sigma->0) =       -1.40071314


--------------------------------------------------------------------------------------------------------




--------------------------------------- Iteration      1(   5)  ---------------------------------------


     EDDAV:  cpu time      0.0181: real time      0.0358
       DOS:  cpu time      0.0001: real time      0.0001
    CHARGE:  cpu time      0.0042: real time      0.0042
    MIXING:  cpu time      0.0015: real time      0.0021
    --------------------------------------------
      LOOP:  cpu time      0.0239: real time      0.0422

 eigenvalue-minimisations  :    66
 total energy-change (2. order) :-0.7278220E-06  (-0.7279710E-06)
 number of electron       4.0000003 magnetization 
 augmentation part       -0.2815708 magnetization 

 Broyden mixing:
  rms(total) = 0.56885E-01    rms(broyden)= 0.56881E-01
  rms(prec ) = 0.19966E+00
  weight for this iteration     100.00

 Free energy of the ion-electron system (eV)
  ---------------------------------------------------
  alpha Z        PSCENC =         0.26014233
  Ewald energy   TEWEN  =       -72.63374224
  -Hartree energ DENC   =       -18.17002148
  -exchange      EXHF   =         0.00000000
  -V(xc)+E(xc)   XCENC  =       -10.80384324
  PAW double counting   =        33.55897582      -16.14130609
  entropy T*S    EENTRO =        -0.02568429
  eigenvalues    EBANDS =       -20.89073318
  atomic energy  EATOM  =       103.43265638
  Solvation  Ediel_sol  =         0.00000000
  ---------------------------------------------------
  free energy    TOTEN  =        -1.41355600 eV

  energy without entropy =       -1.38787171  energy(sigma->0) =       -1.40071385


--------------------------------------------------------------------------------------------------------




--------------------------------------- Iteration      1(   6)  ---------------------------------------


    POTLOK:  cpu time      0.0092: real time      0.0126
    SETDIJ:  cpu time      0.0006: real time      0.0006
     EDDAV:  cpu time      0.0146: real time      0.0146
       DOS:  cpu time      0.0001: real time      0.0001
    CHARGE:  cpu time      0.0030: real time      0.0030
    MIXING:  cpu time      0.0013: real time      0.0039
    --------------------------------------------
      LOOP:  cpu time      0.0288: real time      0.0350

 eigenvalue-minimisations  :    48
 total energy-change (2. order) : 0.2176757E-01  (-0.2635746E-02)
 number of electron       4.0000003 magnetization 
 augmentation part       -0.2855602 magnetization 

 Broyden mixing:
  rms(total) = 0.30775E-01    rms(broyden)= 0.30774E-01
  rms(prec ) = 0.11199E+00
  weight for this iteration     100.00

 eigenvalues of (default mixing * dielectric matrix)
  average eigenvalue GAMMA=   2.0434
  2.0434

 Free energy of the ion-electron system (eV)
  ---------------------------------------------------
  alpha Z        PSCENC =         0.26014233
  Ewald energy   TEWEN  =       -72.63374224
  -Hartree energ DENC   =       -17.46769383
  -exchange      EXHF   =         0.00000000
  -V(xc)+E(xc)   XCENC  =       -10.88200250
  PAW double counting   =        32.74554319      -15.30206164
  entropy T*S    EENTRO =        -0.02622668
  eigenvalues    EBANDS =       -21.51840344
  atomic energy  EATOM  =       103.43265638
  Solvation  Ediel_sol  =         0.00000000
  ---------------------------------------------------
  free energy    TOTEN  =        -1.39178843 eV

  energy without entropy =       -1.36556174  energy(sigma->0) =       -1.37867509


--------------------------------------------------------------------------------------------------------




--------------------------------------- Iteration      1(   7)  ---------------------------------------


    POTLOK:  cpu time      0.0075: real time      0.0605
    SETDIJ:  cpu time      0.0005: real time      0.0005
     EDDAV:  cpu time      0.0110: real time      0.0110
       DOS:  cpu time      0.0001: real time      0.0001
    CHARGE:  cpu time      0.0028: real time      0.0028
    MIXING:  cpu time      0.0012: real time      0.0012
    --------------------------------------------
      LOOP:  cpu time      0.0231: real time      0.0760

 eigenvalue-minimisations  :    48
 total energy-change (2. order) : 0.7804664E-02  (-0.3782045E-02)
 number of electron       4.0000003 magnetization 
 augmentation part       -0.2905970 magnetization 

 Broyden mixing:
  rms(total) = 0.72337E-02    rms(broyden)= 0.72335E-02
  rms(prec ) = 0.18112E-01
  weight for this iteration     100.00

 eigenvalues of (default mixing * dielectric matrix)
  average eigenvalue GAMMA=   2.6225
  2.0951  3.1500

 Free energy of the ion-electron system (eV)
  ---------------------------------------------------
  alpha Z        PSCENC =         0.26014233
  Ewald energy   TEWEN  =       -72.63374224
  -Hartree energ DENC   =       -16.61295497
  -exchange      EXHF   =         0.00000000
  -V(xc)+E(xc)   XCENC  =       -10.98002954
  PAW double counting   =        32.04252853      -14.57637489
  entropy T*S    EENTRO =        -0.02689304
  eigenvalues    EBANDS =       -22.28931632
  atomic energy  EATOM  =       103.43265638
  Solvation  Ediel_sol  =         0.00000000
  ---------------------------------------------------
  free energy    TOTEN  =        -1.38398376 eV

  energy without entropy =       -1.35709072  energy(sigma->0) =       -1.37053724


--------------------------------------------------------------------------------------------------------




--------------------------------------- Iteration      1(   8)  ---------------------------------------


    POTLOK:  cpu time      0.0069: real time      0.0138
    SETDIJ:  cpu time      0.0005: real time      0.0005
     EDDAV:  cpu time      0.0120: real time      0.0120
       DOS:  cpu time      0.0001: real time      0.0001
    CHARGE:  cpu time      0.0029: real time      0.0029
    MIXING:  cpu time      0.0013: real time      0.0046
    --------------------------------------------
      LOOP:  cpu time      0.0236: real time      0.0338

 eigenvalue-minimisations  :    54
 total energy-change (2. order) :-0.5191036E-03  (-0.7760262E-04)
 number of electron       4.0000003 magnetization 
 augmentation part       -0.2905805 magnetization 

 Broyden mixing:
  rms(total) = 0.12248E-02    rms(broyden)= 0.12247E-02
  rms(prec ) = 0.30582E-02
  weight for this iteration     100.00

 eigenvalues of (default mixing * dielectric matrix)
  average eigenvalue GAMMA=   2.1416
  3.0697  1.4261  1.9289

 Free energy of the ion-electron system (eV)
  ---------------------------------------------------
  alpha Z        PSCENC =         0.26014233
  Ewald energy   TEWEN  =       -72.63374224
  -Hartree energ DENC   =       -16.53428029
  -exchange      EXHF   =         0.00000000
  -V(xc)+E(xc)   XCENC  =       -10.99735642
  PAW double counting   =        32.50347323      -15.05195427
  entropy T*S    EENTRO =        -0.02679572
  eigenvalues    EBANDS =       -22.33664588
  atomic energy  EATOM  =       103.43265638
  Solvation  Ediel_sol  =         0.00000000
  ---------------------------------------------------
  free energy    TOTEN  =        -1.38450287 eV

  energy without entropy =       -1.35770715  energy(sigma->0) =       -1.37110501


--------------------------------------------------------------------------------------------------------




--------------------------------------- Iteration      1(   9)  ---------------------------------------


    POTLOK:  cpu time      0.0068: real time      0.0097
    SETDIJ:  cpu time      0.0005: real time      0.0005
     EDDAV:  cpu time      0.0143: real time      0.0143
       DOS:  cpu time      0.0001: real time      0.0001
    --------------------------------------------
      LOOP:  cpu time      0.0217: real time      0.0246

 eigenvalue-minimisations  :    66
 total energy-change (2. order) :-0.2745249E-05  (-0.2469410E-05)
 number of electron       4.0000003 magnetization 
 augmentation part       -0.2905805 magnetization 

 Free energy of the ion-electron system (eV)
  ---------------------------------------------------
  alpha Z        PSCENC =         0.26014233
  Ewald energy   TEWEN  =       -72.63374224
  -Hartree energ DENC   =       -16.51823695
  -exchange      EXHF   =         0.00000000
  -V(xc)+E(xc)   XCENC  =       -10.99881774
  PAW double counting   =        32.43903867      -14.98562937
  entropy T*S    EENTRO =        -0.02681114
  eigenvalues    EBANDS =       -22.35310555
  atomic energy  EATOM  =       103.43265638
  Solvation  Ediel_sol  =         0.00000000
  ---------------------------------------------------
  free energy    TOTEN  =        -1.38450561 eV

  energy without entropy =       -1.35769447  energy(sigma->0) =       -1.37110004


--------------------------------------------------------------------------------------------------------




 average (electrostatic) potential at core
  the test charge radii are     0.9892
  (the norm of the test charge is              1.0000)
       1 -94.5968
 
 
 
 E-fermi :  -2.3263     XC(G=0):  -5.1576     alpha+bet : -2.6558

 Fermi energy:        -2.3262704030

 k-point     1 :       0.1250    0.1250    0.1250
  band No.  band energies     occupation 
      1      -8.9289      2.00000
      2      -1.5971      0.00000
      3      -1.4280      0.00000
      4      -1.4280      0.00000
      5       2.2747      0.00000
      6       4.2511      0.00000

 k-point     2 :       0.3750    0.1250    0.1250
  band No.  band energies     occupation 
      1      -8.7509      2.00000
      2      -2.6799      2.00000
      3      -1.3314      0.00000
      4      -1.2561      0.00000
      5       3.1881      0.00000
      6       4.2595      0.00000

 k-point     3 :       0.3750    0.3750    0.1250
  band No.  band energies     occupation 
      1      -8.5838      2.00000
      2      -2.4352      1.87661
      3      -2.3653      1.41869
      4      -1.1293      0.00000
      5       2.5577      0.00000
      6       4.4354      0.00000

 k-point     4 :       0.3750    0.3750    0.3750
  band No.  band energies     occupation 
      1      -8.4259      2.00000
      2      -2.2105      0.10157
      3      -2.1330      0.00626
      4      -2.1330      0.00626
      5       2.9406      0.00000
      6       3.5223      0.00000


--------------------------------------------------------------------------------------------------------


 soft charge-density along one line, spin component           1
         0         1         2         3         4         5         6         7         8         9
 total charge-density along one line
 
 pseudopotential strength for first ion, spin component:           1
 20.591   0.007   0.000   0.000  -0.000  -0.000  -0.000   0.000
  0.007   0.006  -0.000  -0.000   0.000   0.000   0.000  -0.000
  0.000  -0.000   4.511  -0.000  -0.000   0.001   0.000   0.000
  0.000  -0.000  -0.000   4.511  -0.000   0.000   0.001   0.000
 -0.000   0.000  -0.000  -0.000   4.511   0.000   0.000   0.001
 -0.000   0.000   0.001   0.000   0.000   0.004  -0.000  -0.000
 -0.000   0.000   0.000   0.001   0.000  -0.000   0.004  -0.000
  0.000  -0.000   0.000   0.000   0.001  -0.000  -0.000   0.004
 total augmentation occupancy for first ion, spin component:           1
  2.049   0.189   0.000   0.000   0.000   0.000   0.000   0.000
  0.189   0.045   0.000   0.000   0.000   0.000   0.000   0.000
  0.000   0.000   0.581   0.000  -0.000  -0.012  -0.000   0.000
  0.000   0.000  -0.000   0.581   0.000  -0.000  -0.012  -0.000
  0.000   0.000  -0.000   0.000   0.581   0.000   0.000  -0.012
  0.000   0.000  -0.012   0.000  -0.000   0.001   0.000  -0.000
  0.000   0.000  -0.000  -0.012   0.000  -0.000   0.001  -0.000
  0.000   0.000   0.000  -0.000  -0.012   0.000  -0.000   0.001


------------------------ aborting loop because EDIFF is reached ----------------------------------------


    CHARGE:  cpu time      0.0030: real time      0.0030
    FORLOC:  cpu time      0.0012: real time      0.0012
    FORNL :  cpu time      0.0019: real time      0.0019
    STRESS:  cpu time      0.0168: real time      0.0168
    FORCOR:  cpu time      0.0082: real time      0.0082
    FORHAR:  cpu time      0.0065: real time      0.0065
    MIXING:  cpu time      0.0013: real time      0.0013
    OFIELD:  cpu time      0.0000: real time      0.0000

  FORCE on cell =-STRESS in cart. coord.  units (eV):
  Direction    XX          YY          ZZ          XY          YZ          ZX
  --------------------------------------------------------------------------------------
  Alpha Z     0.26014     0.26014     0.26014
  Ewald     -24.21125   -24.21125   -24.21125    -0.00000    -0.00000    -0.00000
  Hartree     5.50526     5.50526     5.50526    -0.00000    -0.00000    -0.00000
  E(xc)     -10.65773   -10.65773   -10.65773    -0.00000     0.00000     0.00000
  Local     -28.48120   -28.48120   -28.48120    -0.00000    -0.00000    -0.00000
  n-local    44.53014    40.97944    37.74371     0.54282     0.10095     0.19981
  augment    -7.55528    -7.55528    -7.55528     0.00000     0.00000     0.00000
  Kinetic    28.14564    22.13327    16.13831     0.56510     0.20718     0.16668
  Fock        0.00000     0.00000     0.00000     0.00000     0.00000     0.00000
  -------------------------------------------------------------------------------------
  Total      -1.91656    -1.91656    -1.91656    -0.00000    -0.00000     0.00000
  in kB     -33.69725   -33.69725   -33.69725    -0.00000    -0.00000     0.00000
  external pressure =      -33.70 kB  Pullay stress =        0.00 kB


 VOLUME and BASIS-vectors are now :
 -----------------------------------------------------------------------------
  energy-cutoff  :      400.00
  volume of cell :       91.12
      direct lattice vectors                 reciprocal lattice vectors
     4.500000000  0.000000000  0.000000000     0.222222222  0.000000000  0.000000000
     0.000000000  4.500000000  0.000000000     0.000000000  0.222222222  0.000000000
     0.000000000  0.000000000  4.500000000     0.000000000  0.000000000  0.222222222

  length of vectors
     4.500000000  4.500000000  4.500000000     0.222222222  0.222222222  0.222222222


 FORCES acting on ions
    electron-ion (+dipol)            ewald-force                    non-local-force                 convergence-correction
 -----------------------------------------------------------------------------------------------
   -.132E-15 -.154E-14 0.984E-15   0.113E-16 0.900E-16 -.106E-15   0.212E-21 0.271E-21 0.265E-21   0.117E-14 0.153E-14 0.412E-15
 -----------------------------------------------------------------------------------------------
   -.132E-15 -.154E-14 0.984E-15   0.113E-16 0.900E-16 -.106E-15   0.212E-21 0.271E-21 0.265E-21   0.117E-14 0.153E-14 0.412E-15
 
 
 POSITION                                       TOTAL-FORCE (eV/Angst)
 -----------------------------------------------------------------------------------
      0.00000      0.00000      0.00000         0.000000     -0.000000      0.000000
 -----------------------------------------------------------------------------------
    total drift:                                0.000000      0.000000      0.000000


--------------------------------------------------------------------------------------------------------



  FREE ENERGIE OF THE ION-ELECTRON SYSTEM (eV)
  ---------------------------------------------------
  free  energy   TOTEN  =        -1.38450561 eV

  energy  without entropy=       -1.35769447  energy(sigma->0) =       -1.37110004
 


--------------------------------------------------------------------------------------------------------


    POTLOK:  cpu time      0.0078: real time      0.0397


--------------------------------------------------------------------------------------------------------




--------------------------------------------------------------------------------------------------------


    WAVPRE:  cpu time      0.0090: real time      0.0403
    FEWALD:  cpu time      0.0000: real time      0.0000
    GENKIN:  cpu time      0.0006: real time      0.0006
    ORTHCH:  cpu time      0.0004: real time      0.0004
     LOOP+:  cpu time      0.2736: real time      0.5213


--------------------------------------- Iteration      2(   1)  ---------------------------------------


    POTLOK:  cpu time      0.0075: real time      0.0120
    SETDIJ:  cpu time      0.0005: real time      0.0005
     EDDAV:  cpu time      0.0110: real time      0.0110
       DOS:  cpu time      0.0001: real time      0.0001
    CHARGE:  cpu time      0.0028: real time      0.0028
    MIXING:  cpu time      0.0011: real time      0.0020
    --------------------------------------------
      LOOP:  cpu time      0.0230: real time      0.0284

 eigenvalue-minimisations  :    48
 total energy-change (2. order) :-0.1285628E+01  (-0.1743222E+01)
 number of electron       4.0000001 magnetization 
 augmentation part       -0.2515668 magnetization 

 Broyden mixing:
  rms(total) = 0.27535E+00    rms(broyden)= 0.27535E+00
  rms(prec ) = 0.87501E+00
  weight for this iteration     100.00

 Free energy of the ion-electron system (eV)
  ---------------------------------------------------
  alpha Z        PSCENC =         0.34802730
  Ewald energy   TEWEN  =       -80.03363014
  -Hartree energ DENC   =       -18.19623819
  -exchange      EXHF   =         0.00000000
  -V(xc)+E(xc)   XCENC  =       -10.59093770
  PAW double counting   =        32.38814490      -14.93342827
  entropy T*S    EENTRO =        -0.02129583
  eigenvalues    EBANDS =       -15.06342938
  atomic energy  EATOM  =       103.43265638
  Solvation  Ediel_sol  =         0.00000000
  ---------------------------------------------------
  free energy    TOTEN  =        -2.67013092 eV

  energy without entropy =       -2.64883510  energy(sigma->0) =       -2.65948301


--------------------------------------------------------------------------------------------------------




--------------------------------------- Iteration      2(   2)  ---------------------------------------


    POTLOK:  cpu time      0.0068: real time      0.0101
    SETDIJ:  cpu time      0.0005: real time      0.0005
     EDDAV:  cpu time      0.0119: real time      0.0119
       DOS:  cpu time      0.0001: real time      0.0001
    CHARGE:  cpu time      0.0028: real time      0.0028
    MIXING:  cpu time      0.0012: real time      0.0045
    --------------------------------------------
      LOOP:  cpu time      0.0234: real time      0.0299

 eigenvalue-minimisations  :    54
 total energy-change (2. order) : 0.4726154E+00  (-0.5359223E-01)
 number of electron       4.0000002 magnetization 
 augmentation part       -0.2668099 magnetization 

 Broyden mixing:
  rms(total) = 0.14471E+00    rms(broyden)= 0.14471E+00
  rms(prec ) = 0.46106E+00
  weight for this iteration     100.00

 eigenvalues of (default mixing * dielectric matrix)
  average eigenvalue GAMMA=   2.0725
  2.0725

 Free energy of the ion-electron system (eV)
  ---------------------------------------------------
  alpha Z        PSCENC =         0.34802730
  Ewald energy   TEWEN  =       -80.03363014
  -Hartree energ DENC   =       -15.49987650
  -exchange      EXHF   =         0.00000000
  -V(xc)+E(xc)   XCENC  =       -10.77335865
  PAW double counting   =        30.95242829      -13.45292687
  entropy T*S    EENTRO =        -0.02203915
  eigenvalues    EBANDS =       -17.14879620
  atomic energy  EATOM  =       103.43265638
  Solvation  Ediel_sol  =         0.00000000
  ---------------------------------------------------
  free energy    TOTEN  =        -2.19751555 eV

  energy without entropy =       -2.17547639  energy(sigma->0) =       -2.18649597


--------------------------------------------------------------------------------------------------------




--------------------------------------- Iteration      2(   3)  ---------------------------------------


    POTLOK:  cpu time      0.0070: real time      0.0122
    SETDIJ:  cpu time      0.0007: real time      0.0114
     EDDAV:  cpu time      0.0109: real time      0.0109
       DOS:  cpu time      0.0001: real time      0.0001
    CHARGE:  cpu time      0.0029: real time      0.0029
    MIXING:  cpu time      0.0012: real time      0.0056
    --------------------------------------------
      LOOP:  cpu time      0.0228: real time      0.0431

 eigenvalue-minimisations  :    48
 total energy-change (2. order) : 0.1845392E+00  (-0.6288947E-01)
 number of electron       4.0000002 magnetization 
 augmentation part       -0.2885890 magnetization 

 Broyden mixing:
  rms(total) = 0.14152E-01    rms(broyden)= 0.14151E-01
  rms(prec ) = 0.24495E-01
  weight for this iteration     100.00

 eigenvalues of (default mixing * dielectric matrix)
  average eigenvalue GAMMA=   1.8666
  1.7842  1.9490

 Free energy of the ion-electron system (eV)
  ---------------------------------------------------
  alpha Z        PSCENC =         0.34802730
  Ewald energy   TEWEN  =       -80.03363014
  -Hartree energ DENC   =       -12.85335845
  -exchange      EXHF   =         0.00000000
  -V(xc)+E(xc)   XCENC  =       -10.91011029
  PAW double counting   =        30.66846034      -13.15495048
  entropy T*S    EENTRO =        -0.02285395
  eigenvalues    EBANDS =       -19.48721701
  atomic energy  EATOM  =       103.43265638
  Solvation  Ediel_sol  =         0.00000000
  ---------------------------------------------------
  free energy    TOTEN  =        -2.01297632 eV

  energy without entropy =       -1.99012237  energy(sigma->0) =       -2.00154935


--------------------------------------------------------------------------------------------------------




--------------------------------------- Iteration      2(   4)  ---------------------------------------


    POTLOK:  cpu time      0.0069: real time      0.0100
    SETDIJ:  cpu time      0.0005: real time      0.0037
     EDDAV:  cpu time      0.0129: real time      0.0171
       DOS:  cpu time      0.0001: real time      0.0001
    CHARGE:  cpu time      0.0031: real time      0.0086
    MIXING:  cpu time      0.0012: real time      0.0012
    --------------------------------------------
      LOOP:  cpu time      0.0247: real time      0.0408

 eigenvalue-minimisations  :    60
 total energy-change (2. order) : 0.8234289E-03  (-0.4730464E-03)
 number of electron       4.0000002 magnetization 
 augmentation part       -0.2891364 magnetization 

 Broyden mixing:
  rms(total) = 0.48475E-02    rms(broyden)= 0.48474E-02
  rms(prec ) = 0.97893E-02
  weight for this iteration     100.00

 eigenvalues of (default mixing * dielectric matrix)
  average eigenvalue GAMMA=   1.9173
  1.1637  1.9856  2.6026

 Free energy of the ion-electron system (eV)
  ---------------------------------------------------
  alpha Z        PSCENC =         0.34802730
  Ewald energy   TEWEN  =       -80.03363014
  -Hartree energ DENC   =       -12.87053028
  -exchange      EXHF   =         0.00000000
  -V(xc)+E(xc)   XCENC  =       -10.89626216
  PAW double counting   =        31.71692711      -14.23754452
  entropy T*S    EENTRO =        -0.02278870
  eigenvalues    EBANDS =       -19.44900788
  atomic energy  EATOM  =       103.43265638
  Solvation  Ediel_sol  =         0.00000000
  ---------------------------------------------------
  free energy    TOTEN  =        -2.01215289 eV

  energy without entropy =       -1.98936419  energy(sigma->0) =       -2.00075854


--------------------------------------------------------------------------------------------------------




--------------------------------------- Iteration      2(   5)  ---------------------------------------


    POTLOK:  cpu time      0.0068: real time      0.0089
    SETDIJ:  cpu time      0.0005: real time      0.0005
     EDDAV:  cpu time      0.0109: real time      0.0109
       DOS:  cpu time      0.0001: real time      0.0008
    CHARGE:  cpu time      0.0030: real time      0.0030
    MIXING:  cpu time      0.0013: real time      0.0013
    --------------------------------------------
      LOOP:  cpu time      0.0226: real time      0.0254

 eigenvalue-minimisations  :    48
 total energy-change (2. order) : 0.1214407E-03  (-0.1295572E-04)
 number of electron       4.0000002 magnetization 
 augmentation part       -0.2894040 magnetization 

 Broyden mixing:
  rms(total) = 0.93891E-03    rms(broyden)= 0.93886E-03
  rms(prec ) = 0.26481E-02
  weight for this iteration     100.00

 eigenvalues of (default mixing * dielectric matrix)
  average eigenvalue GAMMA=   1.6562
  2.6274  1.9982  1.2597  0.7396

 Free energy of the ion-electron system (eV)
  ---------------------------------------------------
  alpha Z        PSCENC =         0.34802730
  Ewald energy   TEWEN  =       -80.03363014
  -Hartree energ DENC   =       -12.82567609
  -exchange      EXHF   =         0.00000000
  -V(xc)+E(xc)   XCENC  =       -10.89328936
  PAW double counting   =        32.23151986      -14.77064736
  entropy T*S    EENTRO =        -0.02276852
  eigenvalues    EBANDS =       -19.47822353
  atomic energy  EATOM  =       103.43265638
  Solvation  Ediel_sol  =         0.00000000
  ---------------------------------------------------
  free energy    TOTEN  =        -2.01203145 eV

  energy without entropy =       -1.98926293  energy(sigma->0) =       -2.00064719


--------------------------------------------------------------------------------------------------------




--------------------------------------- Iteration      2(   6)  ---------------------------------------


    POTLOK:  cpu time      0.0067: real time      0.0067
    SETDIJ:  cpu time      0.0006: real time      0.0253
     EDDAV:  cpu time      0.0123: real time      0.0123
       DOS:  cpu time      0.0001: real time      0.0001
    CHARGE:  cpu time      0.0029: real time      0.0029
    MIXING:  cpu time      0.0013: real time      0.0028
    --------------------------------------------
      LOOP:  cpu time      0.0239: real time      0.0501

 eigenvalue-minimisations  :    54
 total energy-change (2. order) :-0.1160348E-04  (-0.7550955E-06)
 number of electron       4.0000002 magnetization 
 augmentation part       -0.2894121 magnetization 

 Broyden mixing:
  rms(total) = 0.61577E-03    rms(broyden)= 0.61577E-03
  rms(prec ) = 0.15455E-02
  weight for this iteration     100.00

 eigenvalues of (default mixing * dielectric matrix)
  average eigenvalue GAMMA=   2.0557
  3.5239  2.6155  2.0064  0.9773  1.1556

 Free energy of the ion-electron system (eV)
  ---------------------------------------------------
  alpha Z        PSCENC =         0.34802730
  Ewald energy   TEWEN  =       -80.03363014
  -Hartree energ DENC   =       -12.82288914
  -exchange      EXHF   =         0.00000000
  -V(xc)+E(xc)   XCENC  =       -10.89381870
  PAW double counting   =        32.24951339      -14.78990185
  entropy T*S    EENTRO =        -0.02276170
  eigenvalues    EBANDS =       -19.47923859
  atomic energy  EATOM  =       103.43265638
  Solvation  Ediel_sol  =         0.00000000
  ---------------------------------------------------
  free energy    TOTEN  =        -2.01204306 eV

  energy without entropy =       -1.98928136  energy(sigma->0) =       -2.00066221


--------------------------------------------------------------------------------------------------------




--------------------------------------- Iteration      2(   7)  ---------------------------------------


    POTLOK:  cpu time      0.0068: real time      0.0096
    SETDIJ:  cpu time      0.0005: real time      0.0005
     EDDAV:  cpu time      0.0116: real time      0.0116
       DOS:  cpu time      0.0001: real time      0.0001
    --------------------------------------------
      LOOP:  cpu time      0.0190: real time      0.0218

 eigenvalue-minimisations  :    48
 total energy-change (2. order) : 0.1639598E-06  (-0.2789641E-06)
 number of electron       4.0000002 magnetization 
 augmentation part       -0.2894121 magnetization 

 Free energy of the ion-electron system (eV)
  ---------------------------------------------------
  alpha Z        PSCENC =         0.34802730
  Ewald energy   TEWEN  =       -80.03363014
  -Hartree energ DENC   =       -12.82123044
  -exchange      EXHF   =         0.00000000
  -V(xc)+E(xc)   XCENC  =       -10.89559082
  PAW double counting   =        32.17425870      -14.71275645
  entropy T*S    EENTRO =        -0.02275665
  eigenvalues    EBANDS =       -19.48102077
  atomic energy  EATOM  =       103.43265638
  Solvation  Ediel_sol  =         0.00000000
  ---------------------------------------------------
  free energy    TOTEN  =        -2.01204289 eV

  energy without entropy =       -1.98928624  energy(sigma->0) =       -2.00066457


--------------------------------------------------------------------------------------------------------




 average (electrostatic) potential at core
  the test charge radii are     0.9892
  (the norm of the test charge is              1.0000)
       1 -93.7332
 
 
 
 E-fermi :  -1.6781     XC(G=0):  -5.9391     alpha+bet : -3.5530

 Fermi energy:        -1.6780897249

 k-point     1 :       0.1250    0.1250    0.1250
  band No.  band energies     occupation 
      1      -8.3279      2.00000
      2      -0.5266      0.00000
      3      -0.3177      0.00000
      4      -0.3177      0.00000
      5       4.0425      0.00000
      6       5.5973      0.00000

 k-point     2 :       0.3750    0.1250    0.1250
  band No.  band energies     occupation 
      1      -7.9740      2.00000
      2      -2.1996      2.00000
      3      -0.1131      0.00000
      4      -0.0248      0.00000
      5       4.8353      0.00000
      6       5.9809      0.00000

 k-point     3 :       0.3750    0.3750    0.1250
  band No.  band energies     occupation 
      1      -7.6403      2.00000
      2      -1.8030      1.92268
      3      -1.7162      1.41046
      4       0.2077      0.00000
      5       3.4430      0.00000
      6       6.1207      0.00000

 k-point     4 :       0.3750    0.3750    0.3750
  band No.  band energies     occupation 
      1      -7.3230      2.00000
      2      -1.4354      0.00060
      3      -1.3435      0.00000
      4      -1.3435      0.00000
      5       3.9232      0.00000
      6       4.5477      0.00000


--------------------------------------------------------------------------------------------------------


 soft charge-density along one line, spin component           1
         0         1         2         3         4         5         6         7         8         9
 total charge-density along one line
 
 pseudopotential strength for first ion, spin component:           1
 20.478   0.007  -0.000   0.000   0.000   0.000  -0.000  -0.000
  0.007   0.006   0.000  -0.000  -0.000  -0.000   0.000   0.000
 -0.000   0.000   4.493  -0.000  -0.000   0.001   0.000   0.000
  0.000  -0.000  -0.000   4.493   0.000   0.000   0.001  -0.000
  0.000  -0.000  -0.000   0.000   4.493   0.000  -0.000   0.001
  0.000  -0.000   0.001   0.000   0.000   0.004  -0.000  -0.000
 -0.000   0.000   0.000   0.001  -0.000  -0.000   0.004   0.000
 -0.000   0.000   0.000  -0.000   0.001  -0.000   0.000   0.004
 total augmentation occupancy for first ion, spin component:           1
  2.046   0.215   0.000   0.000   0.000   0.000   0.000   0.000
  0.215   0.080   0.000   0.000   0.000   0.000   0.000   0.000
  0.000   0.000   0.570   0.000  -0.000  -0.033   0.000   0.000
  0.000   0.000   0.000   0.570   0.000  -0.000  -0.033  -0.000
  0.000   0.000   0.000   0.000   0.570   0.000   0.000  -0.033
  0.000   0.000  -0.033  -0.000   0.000   0.003   0.000   0.000
  0.000   0.000   0.000  -0.033   0.000   0.000   0.003   0.000
  0.000   0.000   0.000  -0.000  -0.033   0.000   0.000   0.003


------------------------ aborting loop because EDIFF is reached ----------------------------------------


    CHARGE:  cpu time      0.0033: real time      0.0033
    FORLOC:  cpu time      0.0012: real time      0.0012
    FORNL :  cpu time      0.0021: real time      0.0052
    STRESS:  cpu time      0.0174: real time      0.0175
    FORCOR:  cpu time      0.0082: real time      0.0082
    FORHAR:  cpu time      0.0069: real time      0.0116
    MIXING:  cpu time      0.0013: real time      0.0013
    OFIELD:  cpu time      0.0000: real time      0.0039

  FORCE on cell =-STRESS in cart. coord.  units (eV):
  Direction    XX          YY          ZZ          XY          YZ          ZX
  --------------------------------------------------------------------------------------
  Alpha Z     0.34803     0.34803     0.34803
  Ewald     -26.67788   -26.67788   -26.67788     0.00000     0.00000     0.00000
  Hartree     4.27353     4.27353     4.27353    -0.00000    -0.00000    -0.00000
  E(xc)     -10.74365   -10.74365   -10.74365     0.00000     0.00000     0.00000
  Local     -24.77760   -24.77760   -24.77760    -0.00000    -0.00000    -0.00000
  n-local    43.95489    40.76230    37.76618     0.55056     0.05222     0.12914
  augment    -7.52490    -7.52490    -7.52490    -0.00000     0.00000    -0.00000
  Kinetic    28.67850    21.99658    14.99999     0.33310     0.21155    -0.00551
  Fock        0.00000     0.00000     0.00000     0.00000     0.00000     0.00000
  -------------------------------------------------------------------------------------
  Total      -2.38298    -2.38298    -2.38298     0.00000     0.00000    -0.00000
  in kB     -56.05259   -56.05259   -56.05259     0.00000     0.00000    -0.00000
  external pressure =      -56.05 kB  Pullay stress =        0.00 kB


 VOLUME and BASIS-vectors are now :
 -----------------------------------------------------------------------------
  energy-cutoff  :      400.00
  volume of cell :       68.11
      direct lattice vectors                 reciprocal lattice vectors
     4.083931211  0.000000000  0.000000000     0.244862107  0.000000000  0.000000000
    -0.000000000  4.083931211  0.000000000    -0.000000000  0.244862107  0.000000000
    -0.000000000 -0.000000000  4.083931211    -0.000000000 -0.000000000  0.244862107

  length of vectors
     4.083931211  4.083931211  4.083931211     0.244862107  0.244862107  0.244862107


 FORCES acting on ions
    electron-ion (+dipol)            ewald-force                    non-local-force                 convergence-correction
 -----------------------------------------------------------------------------------------------
   -.135E-14 0.306E-15 0.482E-15   0.779E-16 0.635E-16 -.982E-16   0.345E-23 0.418E-23 -.981E-23   0.103E-14 0.106E-14 0.377E-15
 -----------------------------------------------------------------------------------------------
   -.135E-14 0.306E-15 0.482E-15   0.779E-16 0.635E-16 -.982E-16   0.345E-23 0.418E-23 -.981E-23   0.103E-14 0.106E-14 0.377E-15
 
 
 POSITION                                       TOTAL-FORCE (eV/Angst)
 -----------------------------------------------------------------------------------
      0.00000     -0.00000      0.00000        -0.000000     -0.000000     -0.000000
 -----------------------------------------------------------------------------------
    total drift:                               -0.000000      0.000000      0.000000


--------------------------------------------------------------------------------------------------------



  FREE ENERGIE OF THE ION-ELECTRON SYSTEM (eV)
  ---------------------------------------------------
  free  energy   TOTEN  =        -2.01204289 eV

  energy  without entropy=       -1.98928624  energy(sigma->0) =       -2.00066457
 
 d Force = 0.0000000E+00[ 0.000E+00, 0.000E+00]  d Energy = 0.6275373E+00-0.628E+00
 d Force = 0.0000000E+00[ 0.000E+00, 0.000E+00]  d Ewald  = 0.7399888E+01-0.740E+01


--------------------------------------------------------------------------------------------------------


    POTLOK:  cpu time      0.0076: real time      0.0118


--------------------------------------------------------------------------------------------------------


 Steepest descent step on ions:
 trial-energy change:   -0.627537  1 .order   -0.596301   -0.531613   -0.660989
  (g-gl).g = 0.532E+00      g.g   = 0.532E+00  gl.gl    = 0.000E+00
 g(Force)  = 0.586E-66   g(Stress)= 0.532E+00 ortho     = 0.000E+00
 gamma     =   0.00000
 trial     =   1.00000
 opt step  =   2.72951  (harmonic =   4.00000) maximal distance =0.00000000
 next E    =    -2.745230   (d E  =  -1.36072)


--------------------------------------------------------------------------------------------------------


    WAVPRE:  cpu time      0.0075: real time      0.0284
    FEWALD:  cpu time      0.0000: real time      0.0000
    GENKIN:  cpu time      0.0006: real time      0.0006
    ORTHCH:  cpu time      0.0005: real time      0.0005
     LOOP+:  cpu time      0.2187: real time      0.3860


--------------------------------------- Iteration      3(   1)  ---------------------------------------


    POTLOK:  cpu time      0.0073: real time      0.0073
    SETDIJ:  cpu time      0.0007: real time      0.0007
     EDDAV:  cpu time      0.0111: real time      0.0111
       DOS:  cpu time      0.0001: real time      0.0001
    CHARGE:  cpu time      0.0029: real time      0.0029
    MIXING:  cpu time      0.0011: real time      0.0011
    --------------------------------------------
      LOOP:  cpu time      0.0233: real time      0.0233

 eigenvalue-minimisations  :    48
 total energy-change (2. order) :-0.3776042E+01  (-0.6778581E+01)
 number of electron       3.9999999 magnetization 
 augmentation part       -0.2126669 magnetization 

 Broyden mixing:
  rms(total) = 0.54012E+00    rms(broyden)= 0.54012E+00
  rms(prec ) = 0.18632E+01
  weight for this iteration     100.00

 Free energy of the ion-electron system (eV)
  ---------------------------------------------------
  alpha Z        PSCENC =         0.62251499
  Ewald energy   TEWEN  =       -97.15191187
  -Hartree energ DENC   =       -15.56305750
  -exchange      EXHF   =         0.00000000
  -V(xc)+E(xc)   XCENC  =       -10.05608322
  PAW double counting   =        32.18383770      -14.72243585
  entropy T*S    EENTRO =        -0.02361756
  eigenvalues    EBANDS =        -4.50998791
  atomic energy  EATOM  =       103.43265638
  Solvation  Ediel_sol  =         0.00000000
  ---------------------------------------------------
  free energy    TOTEN  =        -5.78808485 eV

  energy without entropy =       -5.76446729  energy(sigma->0) =       -5.77627607


--------------------------------------------------------------------------------------------------------




--------------------------------------- Iteration      3(   2)  ---------------------------------------


    POTLOK:  cpu time      0.0068: real time      0.0133
    SETDIJ:  cpu time      0.0007: real time      0.0007
     EDDAV:  cpu time      0.0120: real time      0.0120
       DOS:  cpu time      0.0003: real time      0.0021
    CHARGE:  cpu time      0.0030: real time      0.0030
    MIXING:  cpu time      0.0012: real time      0.0061
    --------------------------------------------
      LOOP:  cpu time      0.0240: real time      0.0373

 eigenvalue-minimisations  :    54
 total energy-change (2. order) : 0.1535086E+01  (-0.1299182E+00)
 number of electron       3.9999999 magnetization 
 augmentation part       -0.2399861 magnetization 

 Broyden mixing:
  rms(total) = 0.29657E+00    rms(broyden)= 0.29657E+00
  rms(prec ) = 0.10182E+01
  weight for this iteration     100.00

 eigenvalues of (default mixing * dielectric matrix)
  average eigenvalue GAMMA=   2.1891
  2.1891

 Free energy of the ion-electron system (eV)
  ---------------------------------------------------
  alpha Z        PSCENC =         0.62251499
  Ewald energy   TEWEN  =       -97.15191187
  -Hartree energ DENC   =       -10.97132126
  -exchange      EXHF   =         0.00000000
  -V(xc)+E(xc)   XCENC  =       -10.34608707
  PAW double counting   =        30.15393825      -12.62826173
  entropy T*S    EENTRO =        -0.02500665
  eigenvalues    EBANDS =        -7.33951941
  atomic energy  EATOM  =       103.43265638
  Solvation  Ediel_sol  =         0.00000000
  ---------------------------------------------------
  free energy    TOTEN  =        -4.25299837 eV

  energy without entropy =       -4.22799172  energy(sigma->0) =       -4.24049504


--------------------------------------------------------------------------------------------------------




--------------------------------------- Iteration      3(   3)  ---------------------------------------


    POTLOK:  cpu time      0.0071: real time      0.0134
    SETDIJ:  cpu time      0.0007: real time      0.0007
     EDDAV:  cpu time      0.0112: real time      0.0113
       DOS:  cpu time      0.0002: real time      0.0087
    CHARGE:  cpu time      0.0032: real time      0.0032
    MIXING:  cpu time      0.0012: real time      0.0012
    --------------------------------------------
      LOOP:  cpu time      0.0236: real time      0.0384

 eigenvalue-minimisations  :    48
 total energy-change (2. order) : 0.6683337E+00  (-0.1804262E+00)
 number of electron       3.9999999 magnetization 
 augmentation part       -0.2801928 magnetization 

 Broyden mixing:
  rms(total) = 0.26702E-01    rms(broyden)= 0.26701E-01
  rms(prec ) = 0.49859E-01
  weight for this iteration     100.00

 eigenvalues of (default mixing * dielectric matrix)
  average eigenvalue GAMMA=   1.9924
  1.9143  2.0705

 Free energy of the ion-electron system (eV)
  ---------------------------------------------------
  alpha Z        PSCENC =         0.62251499
  Ewald energy   TEWEN  =       -97.15191187
  -Hartree energ DENC   =        -6.77851922
  -exchange      EXHF   =         0.00000000
  -V(xc)+E(xc)   XCENC  =       -10.47175597
  PAW double counting   =        29.74202331      -12.19654356
  entropy T*S    EENTRO =        -0.02593219
  eigenvalues    EBANDS =       -10.75719650
  atomic energy  EATOM  =       103.43265638
  Solvation  Ediel_sol  =         0.00000000
  ---------------------------------------------------
  free energy    TOTEN  =        -3.58466463 eV

  energy without entropy =       -3.55873244  energy(sigma->0) =       -3.57169854


--------------------------------------------------------------------------------------------------------




--------------------------------------- Iteration      3(   4)  ---------------------------------------


    POTLOK:  cpu time      0.0069: real time      0.0069
    SETDIJ:  cpu time      0.0007: real time      0.0007
     EDDAV:  cpu time      0.0115: real time      0.0115
       DOS:  cpu time      0.0001: real time      0.0001
    CHARGE:  cpu time      0.0029: real time      0.0029
    MIXING:  cpu time      0.0012: real time      0.0026
    --------------------------------------------
      LOOP:  cpu time      0.0232: real time      0.0246

 eigenvalue-minimisations  :    48
 total energy-change (2. order) : 0.3488064E-02  (-0.1158208E-02)
 number of electron       3.9999999 magnetization 
 augmentation part       -0.2808488 magnetization 

 Broyden mixing:
  rms(total) = 0.80124E-02    rms(broyden)= 0.80123E-02
  rms(prec ) = 0.15507E-01
  weight for this iteration     100.00

 eigenvalues of (default mixing * dielectric matrix)
  average eigenvalue GAMMA=   1.9402
  1.1501  2.0575  2.6129

 Free energy of the ion-electron system (eV)
  ---------------------------------------------------
  alpha Z        PSCENC =         0.62251499
  Ewald energy   TEWEN  =       -97.15191187
  -Hartree energ DENC   =        -6.84875874
  -exchange      EXHF   =         0.00000000
  -V(xc)+E(xc)   XCENC  =       -10.43703936
  PAW double counting   =        31.57007029      -14.08408421
  entropy T*S    EENTRO =        -0.02598822
  eigenvalues    EBANDS =       -10.65863582
  atomic energy  EATOM  =       103.43265638
  Solvation  Ediel_sol  =         0.00000000
  ---------------------------------------------------
  free energy    TOTEN  =        -3.58117657 eV

  energy without entropy =       -3.55518835  energy(sigma->0) =       -3.56818246


--------------------------------------------------------------------------------------------------------




--------------------------------------- Iteration      3(   5)  ---------------------------------------


    POTLOK:  cpu time      0.0070: real time      0.0115
    SETDIJ:  cpu time      0.0008: real time      0.0008
     EDDAV:  cpu time      0.0153: real time      0.0153
       DOS:  cpu time      0.0001: real time      0.0001
    CHARGE:  cpu time      0.0029: real time      0.0029
    MIXING:  cpu time      0.0013: real time      0.0217
    --------------------------------------------
      LOOP:  cpu time      0.0275: real time      0.0523

 eigenvalue-minimisations  :    72
 total energy-change (2. order) : 0.3884550E-03  (-0.3082872E-04)
 number of electron       3.9999999 magnetization 
 augmentation part       -0.2813989 magnetization 

 Broyden mixing:
  rms(total) = 0.13165E-02    rms(broyden)= 0.13165E-02
  rms(prec ) = 0.22934E-02
  weight for this iteration     100.00

 eigenvalues of (default mixing * dielectric matrix)
  average eigenvalue GAMMA=   1.8055
  2.6107  2.1199  0.9586  1.5330

 Free energy of the ion-electron system (eV)
  ---------------------------------------------------
  alpha Z        PSCENC =         0.62251499
  Ewald energy   TEWEN  =       -97.15191187
  -Hartree energ DENC   =        -6.82477216
  -exchange      EXHF   =         0.00000000
  -V(xc)+E(xc)   XCENC  =       -10.42537317
  PAW double counting   =        32.19478827      -14.73164848
  entropy T*S    EENTRO =        -0.02601386
  eigenvalues    EBANDS =       -10.67102821
  atomic energy  EATOM  =       103.43265638
  Solvation  Ediel_sol  =         0.00000000
  ---------------------------------------------------
  free energy    TOTEN  =        -3.58078811 eV

  energy without entropy =       -3.55477425  energy(sigma->0) =       -3.56778118


--------------------------------------------------------------------------------------------------------




--------------------------------------- Iteration      3(   6)  ---------------------------------------


    POTLOK:  cpu time      0.0074: real time      0.0169
    SETDIJ:  cpu time      0.0007: real time      0.0007
     EDDAV:  cpu time      0.0122: real time      0.0122
       DOS:  cpu time      0.0001: real time      0.0001
    --------------------------------------------
      LOOP:  cpu time      0.0205: real time      0.0300

 eigenvalue-minimisations  :    54
 total energy-change (2. order) :-0.2164171E-05  (-0.8898035E-06)
 number of electron       3.9999999 magnetization 
 augmentation part       -0.2813989 magnetization 

 Free energy of the ion-electron system (eV)
  ---------------------------------------------------
  alpha Z        PSCENC =         0.62251499
  Ewald energy   TEWEN  =       -97.15191187
  -Hartree energ DENC   =        -6.82975329
  -exchange      EXHF   =         0.00000000
  -V(xc)+E(xc)   XCENC  =       -10.42485823
  PAW double counting   =        32.20057012      -14.73917927
  entropy T*S    EENTRO =        -0.02601603
  eigenvalues    EBANDS =       -10.66481309
  atomic energy  EATOM  =       103.43265638
  Solvation  Ediel_sol  =         0.00000000
  ---------------------------------------------------
  free energy    TOTEN  =        -3.58079028 eV

  energy without entropy =       -3.55477425  energy(sigma->0) =       -3.56778226


--------------------------------------------------------------------------------------------------------




 average (electrostatic) potential at core
  the test charge radii are     0.9892
  (the norm of the test charge is              1.0000)
       1 -90.8587
 
 
 
 E-fermi :   0.4229     XC(G=0):  -7.6710     alpha+bet : -6.3553

 Fermi energy:         0.4228826273

 k-point     1 :       0.1250    0.1250    0.1250
  band No.  band energies     occupation 
      1      -6.8720      2.00000
      2       3.0340      0.00000
      3       3.0340      0.00000
      4       3.1329      0.00000
      5       9.7763      0.00000
      6       9.8628      0.00000

 k-point     2 :       0.3750    0.1250    0.1250
  band No.  band energies     occupation 
      1      -5.8383      2.00000
      2      -0.5939      2.00000
      3       3.7845      0.00000
      4       3.9426      0.00000
      5       9.3907      0.00000
      6      10.3962      0.00000

 k-point     3 :       0.3750    0.3750    0.1250
  band No.  band energies     occupation 
      1      -4.8177      2.00000
      2       0.3395      1.76181
      3       0.3669      1.57152
      4       4.5903      0.00000
      5       6.1166      0.00000
      6      10.8514      0.00000

 k-point     4 :       0.3750    0.3750    0.3750
  band No.  band energies     occupation 
      1      -3.7998      2.00000
      2       1.1787      0.00000
      3       1.1787      0.00000
      4       1.3241      0.00000
      5       6.9416      0.00000
      6       7.5825      0.00000


--------------------------------------------------------------------------------------------------------


 soft charge-density along one line, spin component           1
         0         1         2         3         4         5         6         7         8         9
 total charge-density along one line
 
 pseudopotential strength for first ion, spin component:           1
 20.118   0.004  -0.000   0.000  -0.000   0.000  -0.000   0.000
  0.004   0.006   0.000  -0.000   0.000  -0.000   0.000  -0.000
 -0.000   0.000   4.438  -0.000   0.000  -0.001   0.000  -0.000
  0.000  -0.000  -0.000   4.438  -0.000   0.000  -0.001   0.000
 -0.000   0.000   0.000  -0.000   4.438  -0.000   0.000  -0.001
  0.000  -0.000  -0.001   0.000  -0.000   0.005  -0.000   0.000
 -0.000   0.000   0.000  -0.001   0.000  -0.000   0.005  -0.000
  0.000  -0.000  -0.000   0.000  -0.001   0.000  -0.000   0.005
 total augmentation occupancy for first ion, spin component:           1
  1.974   0.163   0.000   0.000   0.000   0.000   0.000   0.000
  0.163   0.209   0.000   0.000   0.000   0.000   0.000   0.000
  0.000   0.000   0.593   0.000   0.000  -0.113  -0.000  -0.000
  0.000   0.000   0.000   0.593   0.000  -0.000  -0.113  -0.000
  0.000   0.000   0.000   0.000   0.593  -0.000  -0.000  -0.113
  0.000   0.000  -0.113  -0.000  -0.000   0.031   0.000   0.000
  0.000   0.000  -0.000  -0.113  -0.000   0.000   0.031   0.000
  0.000   0.000  -0.000  -0.000  -0.113   0.000   0.000   0.031


------------------------ aborting loop because EDIFF is reached ----------------------------------------


    CHARGE:  cpu time      0.0031: real time      0.0031
    FORLOC:  cpu time      0.0014: real time      0.0014
    FORNL :  cpu time      0.0032: real time      0.0032
    STRESS:  cpu time      0.0205: real time      0.0205
    FORCOR:  cpu time      0.0083: real time      0.0083
    FORHAR:  cpu time      0.0068: real time      0.0069
    MIXING:  cpu time      0.0013: real time      0.0013
    OFIELD:  cpu time      0.0000: real time      0.0053

  FORCE on cell =-STRESS in cart. coord.  units (eV):
  Direction    XX          YY          ZZ          XY          YZ          ZX
  --------------------------------------------------------------------------------------
  Alpha Z     0.62251     0.62251     0.62251
  Ewald     -32.38397   -32.38397   -32.38397     0.00000     0.00000     0.00000
  Hartree     2.27616     2.27616     2.27616    -0.00000    -0.00000    -0.00000
  E(xc)     -11.20364   -11.20364   -11.20364     0.00000    -0.00000    -0.00000
  Local     -17.51185   -17.51185   -17.51185    -0.00000    -0.00000    -0.00000
  n-local    42.24092    40.05604    38.11599    -0.16837    -0.05885    -0.04358
  augment    -7.31923    -7.31923    -7.31923    -0.00000    -0.00000     0.00000
  Kinetic    32.46933    22.78650    12.14150    -2.13459     0.60062    -0.22356
  Fock        0.00000     0.00000     0.00000     0.00000     0.00000     0.00000
  -------------------------------------------------------------------------------------
  Total      -2.91660    -2.91660    -2.91660    -0.00000    -0.00000    -0.00000
  in kB    -122.71254  -122.71254  -122.71254    -0.00000    -0.00000    -0.00000
  external pressure =     -122.71 kB  Pullay stress =        0.00 kB


 VOLUME and BASIS-vectors are now :
 -----------------------------------------------------------------------------
  energy-cutoff  :      400.00
  volume of cell :       38.08
      direct lattice vectors                 reciprocal lattice vectors
     3.364337704  0.000000000  0.000000000     0.297235322  0.000000000  0.000000000
    -0.000000000  3.364337704  0.000000000    -0.000000000  0.297235322  0.000000000
    -0.000000000 -0.000000000  3.364337704    -0.000000000 -0.000000000  0.297235322

  length of vectors
     3.364337704  3.364337704  3.364337704     0.297235322  0.297235322  0.297235322


 FORCES acting on ions
    electron-ion (+dipol)            ewald-force                    non-local-force                 convergence-correction
 -----------------------------------------------------------------------------------------------
   -.979E-15 -.133E-14 0.136E-14   0.129E-15 -.296E-16 -.407E-16   -.163E-22 -.168E-22 -.195E-22   0.275E-15 0.570E-15 0.194E-15
 -----------------------------------------------------------------------------------------------
   -.979E-15 -.133E-14 0.136E-14   0.129E-15 -.296E-16 -.407E-16   -.163E-22 -.168E-22 -.195E-22   0.275E-15 0.570E-15 0.194E-15
 
 
 POSITION                                       TOTAL-FORCE (eV/Angst)
 -----------------------------------------------------------------------------------
      0.00000     -0.00000      0.00000        -0.000000     -0.000000      0.000000
 -----------------------------------------------------------------------------------
    total drift:                               -0.000000     -0.000000      0.000000


--------------------------------------------------------------------------------------------------------



  FREE ENERGIE OF THE ION-ELECTRON SYSTEM (eV)
  ---------------------------------------------------
  free  energy   TOTEN  =        -3.58079028 eV

  energy  without entropy=       -3.55477425  energy(sigma->0) =       -3.56778226
 
 d Force = 0.0000000E+00[ 0.000E+00, 0.000E+00]  d Energy = 0.1568747E+01-0.157E+01
 d Force = 0.0000000E+00[ 0.000E+00, 0.000E+00]  d Ewald  = 0.1711828E+02-0.171E+02


--------------------------------------------------------------------------------------------------------


    POTLOK:  cpu time      0.0073: real time      0.0073


--------------------------------------------------------------------------------------------------------




[...]


    CHARGE:  cpu time      0.0037: real time      0.0037
    FORLOC:  cpu time      0.0013: real time      0.0013
    FORNL :  cpu time      0.0062: real time      0.0100
    STRESS:  cpu time      0.0297: real time      0.0297
    FORCOR:  cpu time      0.0078: real time      0.0079
    FORHAR:  cpu time      0.0069: real time      0.0105
    MIXING:  cpu time      0.0013: real time      0.0013
    OFIELD:  cpu time      0.0000: real time      0.0031

  FORCE on cell =-STRESS in cart. coord.  units (eV):
  Direction    XX          YY          ZZ          XY          YZ          ZX
  --------------------------------------------------------------------------------------
  Alpha Z     1.49578     1.49578     1.49578
  Ewald     -43.37466   -43.37466   -43.37466     0.00000     0.00000     0.00000
  Hartree     0.57625     0.57625     0.57625    -0.00000    -0.00000    -0.00000
  E(xc)     -13.04557   -13.04557   -13.04557    -0.00000     0.00000    -0.00000
  Local      -8.11669    -8.11669    -8.11669    -0.00000    -0.00000    -0.00000
  n-local    39.43026    39.94728    41.56359    -0.27630    -0.33366    -0.38497
  augment    -6.64745    -6.64745    -6.64745    -0.00000     0.00000     0.00000
  Kinetic    47.53887    29.21857     9.52956    -6.48905     3.25438     1.03322
  Fock        0.00000     0.00000     0.00000     0.00000     0.00000     0.00000
  -------------------------------------------------------------------------------------
  Total      -0.03630    -0.03630    -0.03630     0.00000     0.00000     0.00000
  in kB      -3.66933    -3.66933    -3.66933     0.00000     0.00000     0.00000
  external pressure =       -3.67 kB  Pullay stress =        0.00 kB


 VOLUME and BASIS-vectors are now :
 -----------------------------------------------------------------------------
  energy-cutoff  :      400.00
  volume of cell :       15.85
      direct lattice vectors                 reciprocal lattice vectors
     2.511849523  0.000000000  0.000000000     0.398113020  0.000000000  0.000000000
    -0.000000000  2.511849523  0.000000000    -0.000000000  0.398113020  0.000000000
    -0.000000000 -0.000000000  2.511849523    -0.000000000 -0.000000000  0.398113020

  length of vectors
     2.511849523  2.511849523  2.511849523     0.398113020  0.398113020  0.398113020


 FORCES acting on ions
    electron-ion (+dipol)            ewald-force                    non-local-force                 convergence-correction
 -----------------------------------------------------------------------------------------------
   -.355E-15 -.580E-15 0.663E-15   -.791E-16 -.158E-15 -.759E-16   0.166E-24 0.158E-24 0.120E-24   -.173E-15 0.108E-15 0.416E-16
 -----------------------------------------------------------------------------------------------
   -.355E-15 -.580E-15 0.663E-15   -.791E-16 -.158E-15 -.759E-16   0.166E-24 0.158E-24 0.120E-24   -.173E-15 0.108E-15 0.416E-16
 
 
 POSITION                                       TOTAL-FORCE (eV/Angst)
 -----------------------------------------------------------------------------------
      0.00000     -0.00000      0.00000         0.000000     -0.000000      0.000000
 -----------------------------------------------------------------------------------
    total drift:                               -0.000000     -0.000000      0.000000


--------------------------------------------------------------------------------------------------------



  FREE ENERGIE OF THE ION-ELECTRON SYSTEM (eV)
  ---------------------------------------------------
  free  energy   TOTEN  =        -5.56052198 eV

  energy  without entropy=       -5.54123919  energy(sigma->0) =       -5.55088058
 
 d Force = 0.0000000E+00[ 0.000E+00, 0.000E+00]  d Energy = 0.2324093E-01-0.232E-01
 d Force = 0.0000000E+00[ 0.000E+00, 0.000E+00]  d Ewald  =-0.3018412E+01 0.302E+01


--------------------------------------------------------------------------------------------------------


    POTLOK:  cpu time      0.0079: real time      0.0079


--------------------------------------------------------------------------------------------------------




--------------------------------------------------------------------------------------------------------


    WAVPRE:  cpu time      0.0066: real time      0.0764
    FEWALD:  cpu time      0.0002: real time      0.0003
    GENKIN:  cpu time      0.0006: real time      0.0046
    ORTHCH:  cpu time      0.0004: real time      0.0004
     LOOP+:  cpu time      0.2030: real time      0.4312


--------------------------------------- Iteration      9(   1)  ---------------------------------------


    POTLOK:  cpu time      0.0070: real time      0.0074
    SETDIJ:  cpu time      0.0015: real time      0.0389
     EDDAV:  cpu time      0.0130: real time      0.0162
       DOS:  cpu time      0.0001: real time      0.0001
    CHARGE:  cpu time      0.0033: real time      0.0033
    MIXING:  cpu time      0.0012: real time      0.0032
    --------------------------------------------
      LOOP:  cpu time      0.0261: real time      0.0704

 eigenvalue-minimisations  :    60
 total energy-change (2. order) :-0.9192305E-04  (-0.1361664E-03)
 number of electron       4.0000000 magnetization 
 augmentation part       -0.2570477 magnetization 

 Broyden mixing:
  rms(total) = 0.23770E-02    rms(broyden)= 0.23770E-02
  rms(prec ) = 0.94853E-02
  weight for this iteration     100.00

 Free energy of the ion-electron system (eV)
  ---------------------------------------------------
  alpha Z        PSCENC =         1.50106230
  Ewald energy   TEWEN  =      -130.27697114
  -Hartree energ DENC   =        -1.73078854
  -exchange      EXHF   =         0.00000000
  -V(xc)+E(xc)   XCENC  =        -8.86818174
  PAW double counting   =        35.88451498      -18.52659571
  entropy T*S    EENTRO =        -0.01928279
  eigenvalues    EBANDS =        13.04296860
  atomic energy  EATOM  =       103.43265638
  Solvation  Ediel_sol  =         0.00000000
  ---------------------------------------------------
  free energy    TOTEN  =        -5.56061766 eV

  energy without entropy =       -5.54133487  energy(sigma->0) =       -5.55097626


--------------------------------------------------------------------------------------------------------




--------------------------------------- Iteration      9(   2)  ---------------------------------------


    POTLOK:  cpu time      0.0072: real time      0.0107
    SETDIJ:  cpu time      0.0013: real time      0.0013
     EDDAV:  cpu time      0.0110: real time      0.0110
       DOS:  cpu time      0.0001: real time      0.0001
    CHARGE:  cpu time      0.0034: real time      0.0034
    MIXING:  cpu time      0.0011: real time      0.0029
    --------------------------------------------
      LOOP:  cpu time      0.0241: real time      0.0281

 eigenvalue-minimisations  :    48
 total energy-change (2. order) : 0.2097429E-04  (-0.1418326E-05)
 number of electron       4.0000000 magnetization 
 augmentation part       -0.2571032 magnetization 

 Broyden mixing:
  rms(total) = 0.13591E-02    rms(broyden)= 0.13591E-02
  rms(prec ) = 0.54457E-02
  weight for this iteration     100.00

 eigenvalues of (default mixing * dielectric matrix)
  average eigenvalue GAMMA=   2.3130
  2.3130

 Free energy of the ion-electron system (eV)
  ---------------------------------------------------
  alpha Z        PSCENC =         1.50106230
  Ewald energy   TEWEN  =      -130.27697114
  -Hartree energ DENC   =        -1.72507372
  -exchange      EXHF   =         0.00000000
  -V(xc)+E(xc)   XCENC  =        -8.86774465
  PAW double counting   =        35.89636507      -18.53870369
  entropy T*S    EENTRO =        -0.01928279
  eigenvalues    EBANDS =        13.03709555
  atomic energy  EATOM  =       103.43265638
  Solvation  Ediel_sol  =         0.00000000
  ---------------------------------------------------
  free energy    TOTEN  =        -5.56059668 eV

  energy without entropy =       -5.54131389  energy(sigma->0) =       -5.55095529


--------------------------------------------------------------------------------------------------------




--------------------------------------- Iteration      9(   3)  ---------------------------------------


    POTLOK:  cpu time      0.0067: real time      0.0100
    SETDIJ:  cpu time      0.0013: real time      0.0023
     EDDAV:  cpu time      0.0120: real time      0.0219
       DOS:  cpu time      0.0002: real time      0.0108
    CHARGE:  cpu time      0.0037: real time      0.0037
    MIXING:  cpu time      0.0012: real time      0.0022
    --------------------------------------------
      LOOP:  cpu time      0.0251: real time      0.0509

 eigenvalue-minimisations  :    54
 total energy-change (2. order) : 0.1100515E-04  (-0.1778176E-05)
 number of electron       4.0000000 magnetization 
 augmentation part       -0.2572216 magnetization 

 Broyden mixing:
  rms(total) = 0.78800E-04    rms(broyden)= 0.78799E-04
  rms(prec ) = 0.17686E-03
  weight for this iteration     100.00

 eigenvalues of (default mixing * dielectric matrix)
  average eigenvalue GAMMA=   1.8203
  1.2923  2.3484

 Free energy of the ion-electron system (eV)
  ---------------------------------------------------
  alpha Z        PSCENC =         1.50106230
  Ewald energy   TEWEN  =      -130.27697114
  -Hartree energ DENC   =        -1.71758999
  -exchange      EXHF   =         0.00000000
  -V(xc)+E(xc)   XCENC  =        -8.86702459
  PAW double counting   =        35.92117994      -18.56409932
  entropy T*S    EENTRO =        -0.01928279
  eigenvalues    EBANDS =        13.02948352
  atomic energy  EATOM  =       103.43265638
  Solvation  Ediel_sol  =         0.00000000
  ---------------------------------------------------
  free energy    TOTEN  =        -5.56058568 eV

  energy without entropy =       -5.54130289  energy(sigma->0) =       -5.55094428


--------------------------------------------------------------------------------------------------------




--------------------------------------- Iteration      9(   4)  ---------------------------------------


    POTLOK:  cpu time      0.0067: real time      0.0098
    SETDIJ:  cpu time      0.0014: real time      0.0196
     EDDAV:  cpu time      0.0074: real time      0.0075
       DOS:  cpu time      0.0002: real time      0.0019
    --------------------------------------------
      LOOP:  cpu time      0.0158: real time      0.0387

 eigenvalue-minimisations  :    24
 total energy-change (2. order) : 0.4233264E-07  (-0.8394666E-08)
 number of electron       4.0000000 magnetization 
 augmentation part       -0.2572216 magnetization 

 Free energy of the ion-electron system (eV)
  ---------------------------------------------------
  alpha Z        PSCENC =         1.50106230
  Ewald energy   TEWEN  =      -130.27697114
  -Hartree energ DENC   =        -1.71767139
  -exchange      EXHF   =         0.00000000
  -V(xc)+E(xc)   XCENC  =        -8.86695724
  PAW double counting   =        35.92662525      -18.56973804
  entropy T*S    EENTRO =        -0.01928279
  eigenvalues    EBANDS =        13.02969102
  atomic energy  EATOM  =       103.43265638
  Solvation  Ediel_sol  =         0.00000000
  ---------------------------------------------------
  free energy    TOTEN  =        -5.56058564 eV

  energy without entropy =       -5.54130285  energy(sigma->0) =       -5.55094424


--------------------------------------------------------------------------------------------------------




 average (electrostatic) potential at core
  the test charge radii are     0.9892
  (the norm of the test charge is              1.0000)
       1 -82.5356
 
 
 
 E-fermi :   8.0485     XC(G=0): -10.8171     alpha+bet :-15.3244

 Fermi energy:         8.0484990018

 k-point     1 :       0.1250    0.1250    0.1250
  band No.  band energies     occupation 
      1      -3.7915      2.00000
      2      11.8375      0.00000
      3      11.8375      0.00000
      4      14.5731      0.00000
      5      22.2134      0.00000
      6      22.2134      0.00000

 k-point     2 :       0.3750    0.1250    0.1250
  band No.  band energies     occupation 
      1      -1.0707      2.00000
      2       4.7512      2.00000
      3      13.9369      0.00000
      4      16.4878      0.00000
      5      21.3268      0.00000
      6      21.6458      0.00000

 k-point     3 :       0.3750    0.3750    0.1250
  band No.  band energies     occupation 
      1       1.6277      2.00000
      2       6.5618      2.00000
      3       8.0180      1.33333
      4      13.7280      0.00000
      5      18.1623      0.00000
      6      23.3486      0.00000

 k-point     4 :       0.3750    0.3750    0.3750
  band No.  band energies     occupation 
      1       4.2642      2.00000
      2       8.7891      0.00000
      3       8.7891      0.00000
      4      12.3569      0.00000
      5      15.9568      0.00000
      6      15.9568      0.00000


--------------------------------------------------------------------------------------------------------


 soft charge-density along one line, spin component           1
         0         1         2         3         4         5         6         7         8         9
 total charge-density along one line
 
 pseudopotential strength for first ion, spin component:           1
 19.129  -0.003  -0.000   0.000   0.000   0.000  -0.000  -0.000
 -0.003   0.006   0.000  -0.000  -0.000  -0.000   0.000   0.000
 -0.000   0.000   4.305   0.000   0.000  -0.006  -0.000  -0.000
  0.000  -0.000   0.000   4.305   0.000  -0.000  -0.006  -0.000
  0.000  -0.000   0.000   0.000   4.305  -0.000  -0.000  -0.006
  0.000  -0.000  -0.006  -0.000  -0.000   0.005   0.000   0.000
 -0.000   0.000  -0.000  -0.006  -0.000   0.000   0.005   0.000
 -0.000   0.000  -0.000  -0.000  -0.006   0.000   0.000   0.005
 total augmentation occupancy for first ion, spin component:           1
  1.673  -0.462   0.000   0.000   0.000   0.000   0.000   0.000
 -0.462   1.037   0.000   0.000   0.000   0.000   0.000   0.000
  0.000   0.000   0.873   0.000   0.000  -0.482  -0.000  -0.000
  0.000   0.000   0.000   0.873   0.000   0.000  -0.482  -0.000
  0.000   0.000   0.000   0.000   0.873  -0.000  -0.000  -0.482
  0.000   0.000  -0.482  -0.000  -0.000   0.340   0.000   0.000
  0.000   0.000  -0.000  -0.482  -0.000   0.000   0.340   0.000
  0.000   0.000  -0.000  -0.000  -0.482   0.000   0.000   0.340


------------------------ aborting loop because EDIFF is reached ----------------------------------------


    CHARGE:  cpu time      0.0038: real time      0.0038
    FORLOC:  cpu time      0.0012: real time      0.0012
    FORNL :  cpu time      0.0063: real time      0.0091
    STRESS:  cpu time      0.0303: real time      0.0303
    FORCOR:  cpu time      0.0079: real time      0.0079
    FORHAR:  cpu time      0.0067: real time      0.0067
    MIXING:  cpu time      0.0012: real time      0.0012
    OFIELD:  cpu time      0.0000: real time      0.0041

  FORCE on cell =-STRESS in cart. coord.  units (eV):
  Direction    XX          YY          ZZ          XY          YZ          ZX
  --------------------------------------------------------------------------------------
  Alpha Z     1.50106     1.50106     1.50106
  Ewald     -43.42566   -43.42566   -43.42566     0.00000     0.00000     0.00000
  Hartree     0.57257     0.57257     0.57257    -0.00000    -0.00000    -0.00000
  E(xc)     -13.05701   -13.05701   -13.05701     0.00000     0.00000    -0.00000
  Local      -8.08823    -8.08823    -8.08823    -0.00000     0.00000    -0.00000
  n-local    39.43529    39.96771    41.60333    -0.27209    -0.33544    -0.38673
  augment    -6.64697    -6.64697    -6.64697     0.00000     0.00000     0.00000
  Kinetic    47.63018    29.26443     9.53229    -6.51474     3.26782     1.04023
  Fock        0.00000     0.00000     0.00000     0.00000     0.00000     0.00000
  -------------------------------------------------------------------------------------
  Total       0.00018     0.00018     0.00018     0.00000     0.00000     0.00000
  in kB       0.01858     0.01858     0.01858     0.00000     0.00000     0.00000
  external pressure =        0.02 kB  Pullay stress =        0.00 kB


 VOLUME and BASIS-vectors are now :
 -----------------------------------------------------------------------------
  energy-cutoff  :      400.00
  volume of cell :       15.79
      direct lattice vectors                 reciprocal lattice vectors
     2.508899595  0.000000000  0.000000000     0.398581116  0.000000000  0.000000000
    -0.000000000  2.508899595  0.000000000    -0.000000000  0.398581116  0.000000000
    -0.000000000 -0.000000000  2.508899595    -0.000000000 -0.000000000  0.398581116

  length of vectors
     2.508899595  2.508899595  2.508899595     0.398581116  0.398581116  0.398581116


 FORCES acting on ions
    electron-ion (+dipol)            ewald-force                    non-local-force                 convergence-correction
 -----------------------------------------------------------------------------------------------
   -.330E-15 -.600E-15 0.683E-15   -.115E-15 0.107E-16 -.810E-16   0.157E-26 -.459E-26 -.434E-26   0.194E-15 0.110E-15 0.397E-16
 -----------------------------------------------------------------------------------------------
   -.330E-15 -.600E-15 0.683E-15   -.115E-15 0.107E-16 -.810E-16   0.157E-26 -.459E-26 -.434E-26   0.194E-15 0.110E-15 0.397E-16
 
 
 POSITION                                       TOTAL-FORCE (eV/Angst)
 -----------------------------------------------------------------------------------
      0.00000     -0.00000      0.00000        -0.000000     -0.000000     -0.000000
 -----------------------------------------------------------------------------------
    total drift:                               -0.000000     -0.000000      0.000000


--------------------------------------------------------------------------------------------------------



  FREE ENERGIE OF THE ION-ELECTRON SYSTEM (eV)
  ---------------------------------------------------
  free  energy   TOTEN  =        -5.56058564 eV

  energy  without entropy=       -5.54130285  energy(sigma->0) =       -5.55094424
 
 d Force = 0.0000000E+00[ 0.000E+00, 0.000E+00]  d Energy = 0.6366044E-04-0.637E-04
 d Force = 0.0000000E+00[ 0.000E+00, 0.000E+00]  d Ewald  = 0.1529979E+00-0.153E+00


--------------------------------------------------------------------------------------------------------


    POTLOK:  cpu time      0.0078: real time      0.0078


--------------------------------------------------------------------------------------------------------




--------------------------------------------------------------------------------------------------------


  
 reached required accuracy - stopping structural energy minimisation
     LOOP+:  cpu time      0.1606: real time      0.3908
    4ORBIT:  cpu time      0.0000: real time      0.0000

 total amount of memory used by VASP MPI-rank0    41035. kBytes
=======================================================================

   base      :      30000. kBytes
   nonl-proj :        454. kBytes
   fftplans  :       3916. kBytes
   grid      :       6018. kBytes
   one-center:          3. kBytes
   wavefun   :        644. kBytes
 
  
  
 General timing and accounting informations for this job:
 ========================================================
  
                  Total CPU time used (sec):        2.345
                            User time (sec):        2.112
                          System time (sec):        0.233
                         Elapsed time (sec):        5.034
  
                   Maximum memory used (kb):      144460.
                   Average memory used (kb):          N/A
  
                          Minor page faults:        21423
                          Major page faults:            0
                 Voluntary context switches:         1684
