Silicon                                 
           1
     4.500000    0.000000    0.000000
     0.000000    4.500000    0.000000
     0.000000    0.000000    4.500000
   Si
     1
Direct configuration=     1
   0.00000000  0.00000000  0.00000000
Silicon                                 
           1
     4.083931    0.000000    0.000000
    -0.000000    4.083931    0.000000
    -0.000000   -0.000000    4.083931
   Si
     1
Direct configuration=     2
   0.00000000 -0.00000000  0.00000000
Silicon                                 
           1
     3.364338    0.000000    0.000000
    -0.000000    3.364338    0.000000
    -0.000000   -0.000000    3.364338
   Si
     1
Direct configuration=     3
   0.00000000 -0.00000000  0.00000000
Silicon                                 
           1
     1.925151    0.000000    0.000000
    -0.000000    1.925151    0.000000
    -0.000000   -0.000000    1.925151
   Si
     1
Direct configuration=     4
   0.00000000 -0.00000000  0.00000000
Silicon                                 
           1
     3.163806    0.000000    0.000000
    -0.000000    3.163806    0.000000
    -0.000000   -0.000000    3.163806
   Si
     1
Direct configuration=     5
   0.00000000 -0.00000000  0.00000000
Silicon                                 
           1
     2.544478    0.000000    0.000000
    -0.000000    2.544478    0.000000
    -0.000000   -0.000000    2.544478
   Si
     1
Direct configuration=     6
   0.00000000 -0.00000000  0.00000000
Silicon                                 
           1
     2.454904    0.000000    0.000000
    -0.000000    2.454904    0.000000
    -0.000000   -0.000000    2.454904
   Si
     1
Direct configuration=     7
   0.00000000 -0.00000000  0.00000000
Silicon                                 
           1
     2.511850    0.000000    0.000000
    -0.000000    2.511850    0.000000
    -0.000000   -0.000000    2.511850
   Si
     1
Direct configuration=     8
   0.00000000 -0.00000000  0.00000000
Silicon                                 
           1
     2.508900    0.000000    0.000000
    -0.000000    2.508900    0.000000
    -0.000000   -0.000000    2.508900
   Si
     1
Direct configuration=     9
   0.00000000 -0.00000000  0.00000000
