DFT Groundstate Calculation             
   3.90000000000000     
     0.495762    0.495762   -0.000000
    -0.000000    0.495762    0.495762
     0.495762    0.000000    0.495762
   Si
     1
Direct
 -0.000000 -0.000000 -0.000000
 
   32   32   32
 -.24071442602E+01 -.21009533628E+01 -.12351140272E+01 0.43244918204E-01 0.15243996956E+01
 0.29823043730E+01 0.42225116226E+01 0.51169651736E+01 0.56173999268E+01 0.57493166641E+01
 0.55943033284E+01 0.52674470517E+01 0.48922889582E+01 0.45514834995E+01 0.42809977133E+01
 0.41074188901E+01 0.40476387767E+01 0.41074188901E+01 0.42809977133E+01 0.45514834995E+01
 0.48922889582E+01 0.52674470517E+01 0.55943033284E+01 0.57493166641E+01 0.56173999268E+01
 0.51169651736E+01 0.42225116226E+01 0.29823043730E+01 0.15243996956E+01 0.43244918204E-01
 -.12351140272E+01 -.21009533628E+01 -.21009533628E+01 -.15151264494E+01 -.44452284151E+00
 0.93047550156E+00 0.23899397478E+01 0.37225522630E+01 0.47676504642E+01 0.54391165484E+01
 0.57282235002E+01 0.56910293822E+01 0.54279683081E+01 0.50604636757E+01 0.46973322314E+01
 0.43887523871E+01 0.41648250021E+01 0.40472361962E+01 0.40472348005E+01 0.41648230729E+01
 0.43887530055E+01 0.46973342754E+01 0.50604636960E+01 0.54279662301E+01 0.56910286729E+01
 0.57282254979E+01 0.54391182524E+01 0.47676494653E+01 0.37225507355E+01 0.23899407824E+01
 0.93047759505E+00 -.44452390797E+00 -.15151307709E+01 -.21009558843E+01 -.12351140272E+01
 -.44452284151E+00 0.71910636161E+00 0.20608182244E+01 0.33718344533E+01 0.44737930839E+01
 0.52504608022E+01 0.56599334524E+01 0.57291960364E+01 0.55377518425E+01 0.51961755974E+01
 0.48208851817E+01 0.44833348352E+01 0.42166518325E+01 0.40460326380E+01 0.39873617484E+01
 0.40460327032E+01 0.42166518523E+01 0.44833347619E+01 0.48208851189E+01 0.51961756512E+01
 0.55377519615E+01 0.57291961185E+01 0.56599335244E+01 0.52504608729E+01 0.44737928947E+01
 0.33718337759E+01 0.20608175024E+01 0.71910654659E+00 -.44452149869E+00 -.12351126561E+01
 -.15151307709E+01 0.43244918204E-01 0.93047550156E+00 0.20608182244E+01 0.32457561424E+01
 0.43063734711E+01 0.51087624316E+01 0.55839059027E+01 0.57301785366E+01 0.56027313548E+01
 0.52954222526E+01 0.49190973763E+01 0.45614735680E+01 0.42607275600E+01 0.40440870680E+01
 0.39308303604E+01 0.39308313584E+01 0.40440884830E+01 0.42607271840E+01 0.45614720998E+01
 0.49190972849E+01 0.52954237734E+01 0.56027320704E+01 0.57301772386E+01 0.55839044559E+01
 0.51087625844E+01 0.43063739527E+01 0.32457550989E+01 0.20608170769E+01 0.93047736226E+00
 0.43249333585E-01 -.44452149869E+00 -.44452390797E+00 0.15243996956E+01 0.23899397478E+01
 0.33718344533E+01 0.43063734711E+01 0.50563385410E+01 0.55354885082E+01 0.57181108961E+01
 0.56349722312E+01 0.53599259911E+01 0.49911580910E+01 0.46215508862E+01 0.42957314936E+01
 0.40415658550E+01 0.38803328262E+01 0.38251264197E+01 0.38803326542E+01 0.40415658122E+01
 0.42957316581E+01 0.46215509924E+01 0.49911579985E+01 0.53599258870E+01 0.56349722441E+01
 0.57181108657E+01 0.55354883281E+01 0.50563384320E+01 0.43063736695E+01 0.33718348162E+01
 0.23899399092E+01 0.15243995335E+01 0.93047736226E+00 0.71910654659E+00 0.93047759505E+00
 0.29823043730E+01 0.37225522630E+01 0.44737930839E+01 0.51087624316E+01 0.55354885082E+01
 0.57117406030E+01 0.56471213119E+01 0.53950339152E+01 0.50377452450E+01 0.46634341068E+01
 0.43212701867E+01 0.40387870540E+01 0.38379973319E+01 0.37338747667E+01 0.37338741961E+01
 0.38379964908E+01 0.40387871828E+01 0.43212709676E+01 0.46634342176E+01 0.50377444624E+01
 0.53950334700E+01 0.56471220486E+01 0.57117418118E+01 0.55354890151E+01 0.51087620806E+01
 0.44737925228E+01 0.37225517697E+01 0.29823036741E+01 0.23899399092E+01 0.20608170769E+01
 0.20608175024E+01 0.23899407824E+01 0.42225116226E+01 0.47676504642E+01 0.52504608022E+01
 0.55839059027E+01 0.57181108961E+01 0.56471213119E+01 0.54060194269E+01 0.50603352891E+01
 0.46879139432E+01 0.43376876417E+01 0.40362245517E+01 0.38053115522E+01 0.36606459500E+01
 0.36114260784E+01 0.36606459786E+01 0.38053115621E+01 0.40362244991E+01 0.43376875605E+01
 0.46879139389E+01 0.50603354250E+01 0.54060196568E+01 0.56471215311E+01 0.57181109595E+01
 0.55839056134E+01 0.52504601244E+01 0.47676498435E+01 0.42225117680E+01 0.37225517697E+01
 0.33718348162E+01 0.32457550989E+01 0.33718337759E+01 0.37225507355E+01 0.51169651736E+01
 0.54391165484E+01 0.56599334524E+01 0.57301785366E+01 0.56349722312E+01 0.53950339152E+01
 0.50603352891E+01 0.46959372100E+01 0.43456467214E+01 0.40344033737E+01 0.37831709802E+01
 0.36075570693E+01 0.35174278427E+01 0.35174280034E+01 0.36075573668E+01 0.37831710765E+01
 0.40344032028E+01 0.43456466119E+01 0.46959374402E+01 0.50603355696E+01 0.53950336047E+01
 0.56349712090E+01 0.57301776059E+01 0.56599335708E+01 0.54391177240E+01 0.51169664074E+01
 0.47676498435E+01 0.44737925228E+01 0.43063736695E+01 0.43063739527E+01 0.44737928947E+01
 0.47676494653E+01 0.56173999268E+01 0.57282235002E+01 0.57291960364E+01 0.56027313548E+01
 0.53599259911E+01 0.50377452450E+01 0.46879139432E+01 0.43456467214E+01 0.40337425177E+01
 0.37720182618E+01 0.35755473224E+01 0.34541814095E+01 0.34131876071E+01 0.34541814273E+01
 0.35755473488E+01 0.37720182977E+01 0.40337425593E+01 0.43456467081E+01 0.46879137726E+01
 0.50377449303E+01 0.53599257861E+01 0.56027315763E+01 0.57291966752E+01 0.57282241056E+01
 0.56174000001E+01 0.54391177240E+01 0.52504601244E+01 0.51087620806E+01 0.50563384320E+01
 0.51087625844E+01 0.52504608729E+01 0.54391182524E+01 0.57493166641E+01 0.56910293822E+01
 0.55377518425E+01 0.52954222526E+01 0.49911580910E+01 0.46634341068E+01 0.43376876417E+01
 0.40344033737E+01 0.37720182618E+01 0.35648696785E+01 0.34224942550E+01 0.33501960678E+01
 0.33501960389E+01 0.34224941738E+01 0.35648695794E+01 0.37720181873E+01 0.40344033002E+01
 0.43376875382E+01 0.46634341472E+01 0.49911586217E+01 0.52954232738E+01 0.55377526057E+01
 0.56910289482E+01 0.57493150875E+01 0.57282241056E+01 0.56599335708E+01 0.55839056134E+01
 0.55354890151E+01 0.55354883281E+01 0.55839044559E+01 0.56599335244E+01 0.57282254979E+01
 0.55943033284E+01 0.54279683081E+01 0.51961755974E+01 0.49190973763E+01 0.46215508862E+01
 0.43212701867E+01 0.40362245517E+01 0.37831709802E+01 0.35755473224E+01 0.34224942550E+01
 0.33291631604E+01 0.32978509494E+01 0.33291630973E+01 0.34224942085E+01 0.35755473137E+01
 0.37831709760E+01 0.40362246179E+01 0.43212704509E+01 0.46215512532E+01 0.49190974587E+01
 0.51961751372E+01 0.54279675968E+01 0.55943029793E+01 0.56910289482E+01 0.57291966752E+01
 0.57301776059E+01 0.57181109595E+01 0.57117418118E+01 0.57181108657E+01 0.57301772386E+01
 0.57291961185E+01 0.56910286729E+01 0.52674470517E+01 0.50604636757E+01 0.48208851817E+01
 0.45614735680E+01 0.42957314936E+01 0.40387870540E+01 0.38053115522E+01 0.36075570693E+01
 0.34541814095E+01 0.33501960678E+01 0.32978509494E+01 0.32978509523E+01 0.33501960799E+01
 0.34541814771E+01 0.36075572751E+01 0.38053118501E+01 0.40387871424E+01 0.42957310237E+01
 0.45614725934E+01 0.48208843309E+01 0.50604637041E+01 0.52674481100E+01 0.54279675968E+01
 0.55377526057E+01 0.56027315763E+01 0.56349712090E+01 0.56471215311E+01 0.56471220486E+01
 0.56349722441E+01 0.56027320704E+01 0.55377519615E+01 0.54279662301E+01 0.48922889582E+01
 0.46973322314E+01 0.44833348352E+01 0.42607275600E+01 0.40415658550E+01 0.38379973319E+01
 0.36606459500E+01 0.35174278427E+01 0.34131876071E+01 0.33501960389E+01 0.33291630973E+01
 0.33501960799E+01 0.34131876764E+01 0.35174279042E+01 0.36606459172E+01 0.38379971050E+01
 0.40415654789E+01 0.42607273260E+01 0.44833350710E+01 0.46973328944E+01 0.48922895428E+01
 0.50604637041E+01 0.51961751372E+01 0.52954232738E+01 0.53599257861E+01 0.53950336047E+01
 0.54060196568E+01 0.53950334700E+01 0.53599258870E+01 0.52954237734E+01 0.51961756512E+01
 0.50604636960E+01 0.45514834995E+01 0.43887523871E+01 0.42166518325E+01 0.40440870680E+01
 0.38803328262E+01 0.37338747667E+01 0.36114260784E+01 0.35174280034E+01 0.34541814273E+01
 0.34224941738E+01 0.34224942085E+01 0.34541814771E+01 0.35174279042E+01 0.36114257038E+01
 0.37338743476E+01 0.38803329458E+01 0.40440880258E+01 0.42166530471E+01 0.43887527824E+01
 0.45514826403E+01 0.46973328944E+01 0.48208843309E+01 0.49190974587E+01 0.49911586217E+01
 0.50377449303E+01 0.50603355696E+01 0.50603354250E+01 0.50377444624E+01 0.49911579985E+01
 0.49190972849E+01 0.48208851189E+01 0.46973342754E+01 0.42809977133E+01 0.41648250021E+01
 0.40460326380E+01 0.39308303604E+01 0.38251264197E+01 0.37338741961E+01 0.36606459786E+01
 0.36075573668E+01 0.35755473488E+01 0.35648695794E+01 0.35755473137E+01 0.36075572751E+01
 0.36606459172E+01 0.37338743476E+01 0.38251268157E+01 0.39308307120E+01 0.40460325560E+01
 0.41648244319E+01 0.42809970663E+01 0.43887527824E+01 0.44833350710E+01 0.45614725934E+01
 0.46215512532E+01 0.46634341472E+01 0.46879137726E+01 0.46959374402E+01 0.46879139389E+01
 0.46634342176E+01 0.46215509924E+01 0.45614720998E+01 0.44833347619E+01 0.43887530055E+01
 0.41074188901E+01 0.40472361962E+01 0.39873617484E+01 0.39308313584E+01 0.38803326542E+01
 0.38379964908E+01 0.38053115621E+01 0.37831710765E+01 0.37720182977E+01 0.37720181873E+01
 0.37831709760E+01 0.38053118501E+01 0.38379971050E+01 0.38803329458E+01 0.39308307120E+01
 0.39873603936E+01 0.40472352171E+01 0.41074192062E+01 0.41648244319E+01 0.42166530471E+01
 0.42607273260E+01 0.42957310237E+01 0.43212704509E+01 0.43376875382E+01 0.43456467081E+01
 0.43456466119E+01 0.43376875605E+01 0.43212709676E+01 0.42957316581E+01 0.42607271840E+01
 0.42166518523E+01 0.41648230729E+01 0.40476387767E+01 0.40472348005E+01 0.40460327032E+01
 0.40440884830E+01 0.40415658122E+01 0.40387871828E+01 0.40362244991E+01 0.40344032028E+01
 0.40337425593E+01 0.40344033002E+01 0.40362246179E+01 0.40387871424E+01 0.40415654789E+01
 0.40440880258E+01 0.40460325560E+01 0.40472352171E+01 0.40476394792E+01 0.40472352171E+01
 0.40460325560E+01 0.40440880258E+01 0.40415654789E+01 0.40387871424E+01 0.40362246179E+01
 0.40344033002E+01 0.40337425593E+01 0.40344032028E+01 0.40362244991E+01 0.40387871828E+01
 0.40415658122E+01 0.40440884830E+01 0.40460327032E+01 0.40472348005E+01 0.41074188901E+01
 0.41648230729E+01 0.42166518523E+01 0.42607271840E+01 0.42957316581E+01 0.43212709676E+01
 0.43376875605E+01 0.43456466119E+01 0.43456467081E+01 0.43376875382E+01 0.43212704509E+01
 0.42957310237E+01 0.42607273260E+01 0.42166530471E+01 0.41648244319E+01 0.41074192062E+01
 0.40472352171E+01 0.39873603936E+01 0.39308307120E+01 0.38803329458E+01 0.38379971050E+01
 0.38053118501E+01 0.37831709760E+01 0.37720181873E+01 0.37720182977E+01 0.37831710765E+01
 0.38053115621E+01 0.38379964908E+01 0.38803326542E+01 0.39308313584E+01 0.39873617484E+01
 0.40472361962E+01 0.42809977133E+01 0.43887530055E+01 0.44833347619E+01 0.45614720998E+01
 0.46215509924E+01 0.46634342176E+01 0.46879139389E+01 0.46959374402E+01 0.46879137726E+01
 0.46634341472E+01 0.46215512532E+01 0.45614725934E+01 0.44833350710E+01 0.43887527824E+01
 0.42809970663E+01 0.41648244319E+01 0.40460325560E+01 0.39308307120E+01 0.38251268157E+01
 0.37338743476E+01 0.36606459172E+01 0.36075572751E+01 0.35755473137E+01 0.35648695794E+01
 0.35755473488E+01 0.36075573668E+01 0.36606459786E+01 0.37338741961E+01 0.38251264197E+01
 0.39308303604E+01 0.40460326380E+01 0.41648250021E+01 0.45514834995E+01 0.46973342754E+01
 0.48208851189E+01 0.49190972849E+01 0.49911579985E+01 0.50377444624E+01 0.50603354250E+01
 0.50603355696E+01 0.50377449303E+01 0.49911586217E+01 0.49190974587E+01 0.48208843309E+01
 0.46973328944E+01 0.45514826403E+01 0.43887527824E+01 0.42166530471E+01 0.40440880258E+01
 0.38803329458E+01 0.37338743476E+01 0.36114257038E+01 0.35174279042E+01 0.34541814771E+01
 0.34224942085E+01 0.34224941738E+01 0.34541814273E+01 0.35174280034E+01 0.36114260784E+01
 0.37338747667E+01 0.38803328262E+01 0.40440870680E+01 0.42166518325E+01 0.43887523871E+01
 0.48922889582E+01 0.50604636960E+01 0.51961756512E+01 0.52954237734E+01 0.53599258870E+01
 0.53950334700E+01 0.54060196568E+01 0.53950336047E+01 0.53599257861E+01 0.52954232738E+01
 0.51961751372E+01 0.50604637041E+01 0.48922895428E+01 0.46973328944E+01 0.44833350710E+01
 0.42607273260E+01 0.40415654789E+01 0.38379971050E+01 0.36606459172E+01 0.35174279042E+01
 0.34131876764E+01 0.33501960799E+01 0.33291630973E+01 0.33501960389E+01 0.34131876071E+01
 0.35174278427E+01 0.36606459500E+01 0.38379973319E+01 0.40415658550E+01 0.42607275600E+01
 0.44833348352E+01 0.46973322314E+01 0.52674470517E+01 0.54279662301E+01 0.55377519615E+01
 0.56027320704E+01 0.56349722441E+01 0.56471220486E+01 0.56471215311E+01 0.56349712090E+01
 0.56027315763E+01 0.55377526057E+01 0.54279675968E+01 0.52674481100E+01 0.50604637041E+01
 0.48208843309E+01 0.45614725934E+01 0.42957310237E+01 0.40387871424E+01 0.38053118501E+01
 0.36075572751E+01 0.34541814771E+01 0.33501960799E+01 0.32978509523E+01 0.32978509494E+01
 0.33501960678E+01 0.34541814095E+01 0.36075570693E+01 0.38053115522E+01 0.40387870540E+01
 0.42957314936E+01 0.45614735680E+01 0.48208851817E+01 0.50604636757E+01 0.55943033284E+01
 0.56910286729E+01 0.57291961185E+01 0.57301772386E+01 0.57181108657E+01 0.57117418118E+01
 0.57181109595E+01 0.57301776059E+01 0.57291966752E+01 0.56910289482E+01 0.55943029793E+01
 0.54279675968E+01 0.51961751372E+01 0.49190974587E+01 0.46215512532E+01 0.43212704509E+01
 0.40362246179E+01 0.37831709760E+01 0.35755473137E+01 0.34224942085E+01 0.33291630973E+01
 0.32978509494E+01 0.33291631604E+01 0.34224942550E+01 0.35755473224E+01 0.37831709802E+01
 0.40362245517E+01 0.43212701867E+01 0.46215508862E+01 0.49190973763E+01 0.51961755974E+01
 0.54279683081E+01 0.57493166641E+01 0.57282254979E+01 0.56599335244E+01 0.55839044559E+01
 0.55354883281E+01 0.55354890151E+01 0.55839056134E+01 0.56599335708E+01 0.57282241056E+01
 0.57493150875E+01 0.56910289482E+01 0.55377526057E+01 0.52954232738E+01 0.49911586217E+01
 0.46634341472E+01 0.43376875382E+01 0.40344033002E+01 0.37720181873E+01 0.35648695794E+01
 0.34224941738E+01 0.33501960389E+01 0.33501960678E+01 0.34224942550E+01 0.35648696785E+01
 0.37720182618E+01 0.40344033737E+01 0.43376876417E+01 0.46634341068E+01 0.49911580910E+01
 0.52954222526E+01 0.55377518425E+01 0.56910293822E+01 0.56173999268E+01 0.54391182524E+01
 0.52504608729E+01 0.51087625844E+01 0.50563384320E+01 0.51087620806E+01 0.52504601244E+01
 0.54391177240E+01 0.56174000001E+01 0.57282241056E+01 0.57291966752E+01 0.56027315763E+01
 0.53599257861E+01 0.50377449303E+01 0.46879137726E+01 0.43456467081E+01 0.40337425593E+01
 0.37720182977E+01 0.35755473488E+01 0.34541814273E+01 0.34131876071E+01 0.34541814095E+01
 0.35755473224E+01 0.37720182618E+01 0.40337425177E+01 0.43456467214E+01 0.46879139432E+01
 0.50377452450E+01 0.53599259911E+01 0.56027313548E+01 0.57291960364E+01 0.57282235002E+01
 0.51169651736E+01 0.47676494653E+01 0.44737928947E+01 0.43063739527E+01 0.43063736695E+01
 0.44737925228E+01 0.47676498435E+01 0.51169664074E+01 0.54391177240E+01 0.56599335708E+01
 0.57301776059E+01 0.56349712090E+01 0.53950336047E+01 0.50603355696E+01 0.46959374402E+01
 0.43456466119E+01 0.40344032028E+01 0.37831710765E+01 0.36075573668E+01 0.35174280034E+01
 0.35174278427E+01 0.36075570693E+01 0.37831709802E+01 0.40344033737E+01 0.43456467214E+01
 0.46959372100E+01 0.50603352891E+01 0.53950339152E+01 0.56349722312E+01 0.57301785366E+01
 0.56599334524E+01 0.54391165484E+01 0.42225116226E+01 0.37225507355E+01 0.33718337759E+01
 0.32457550989E+01 0.33718348162E+01 0.37225517697E+01 0.42225117680E+01 0.47676498435E+01
 0.52504601244E+01 0.55839056134E+01 0.57181109595E+01 0.56471215311E+01 0.54060196568E+01
 0.50603354250E+01 0.46879139389E+01 0.43376875605E+01 0.40362244991E+01 0.38053115621E+01
 0.36606459786E+01 0.36114260784E+01 0.36606459500E+01 0.38053115522E+01 0.40362245517E+01
 0.43376876417E+01 0.46879139432E+01 0.50603352891E+01 0.54060194269E+01 0.56471213119E+01
 0.57181108961E+01 0.55839059027E+01 0.52504608022E+01 0.47676504642E+01 0.29823043730E+01
 0.23899407824E+01 0.20608175024E+01 0.20608170769E+01 0.23899399092E+01 0.29823036741E+01
 0.37225517697E+01 0.44737925228E+01 0.51087620806E+01 0.55354890151E+01 0.57117418118E+01
 0.56471220486E+01 0.53950334700E+01 0.50377444624E+01 0.46634342176E+01 0.43212709676E+01
 0.40387871828E+01 0.38379964908E+01 0.37338741961E+01 0.37338747667E+01 0.38379973319E+01
 0.40387870540E+01 0.43212701867E+01 0.46634341068E+01 0.50377452450E+01 0.53950339152E+01
 0.56471213119E+01 0.57117406030E+01 0.55354885082E+01 0.51087624316E+01 0.44737930839E+01
 0.37225522630E+01 0.15243996956E+01 0.93047759505E+00 0.71910654659E+00 0.93047736226E+00
 0.15243995335E+01 0.23899399092E+01 0.33718348162E+01 0.43063736695E+01 0.50563384320E+01
 0.55354883281E+01 0.57181108657E+01 0.56349722441E+01 0.53599258870E+01 0.49911579985E+01
 0.46215509924E+01 0.42957316581E+01 0.40415658122E+01 0.38803326542E+01 0.38251264197E+01
 0.38803328262E+01 0.40415658550E+01 0.42957314936E+01 0.46215508862E+01 0.49911580910E+01
 0.53599259911E+01 0.56349722312E+01 0.57181108961E+01 0.55354885082E+01 0.50563385410E+01
 0.43063734711E+01 0.33718344533E+01 0.23899397478E+01 0.43244918204E-01 -.44452390797E+00
 -.44452149869E+00 0.43249333585E-01 0.93047736226E+00 0.20608170769E+01 0.32457550989E+01
 0.43063739527E+01 0.51087625844E+01 0.55839044559E+01 0.57301772386E+01 0.56027320704E+01
 0.52954237734E+01 0.49190972849E+01 0.45614720998E+01 0.42607271840E+01 0.40440884830E+01
 0.39308313584E+01 0.39308303604E+01 0.40440870680E+01 0.42607275600E+01 0.45614735680E+01
 0.49190973763E+01 0.52954222526E+01 0.56027313548E+01 0.57301785366E+01 0.55839059027E+01
 0.51087624316E+01 0.43063734711E+01 0.32457561424E+01 0.20608182244E+01 0.93047550156E+00
 -.12351140272E+01 -.15151307709E+01 -.12351126561E+01 -.44452149869E+00 0.71910654659E+00
 0.20608175024E+01 0.33718337759E+01 0.44737928947E+01 0.52504608729E+01 0.56599335244E+01
 0.57291961185E+01 0.55377519615E+01 0.51961756512E+01 0.48208851189E+01 0.44833347619E+01
 0.42166518523E+01 0.40460327032E+01 0.39873617484E+01 0.40460326380E+01 0.42166518325E+01
 0.44833348352E+01 0.48208851817E+01 0.51961755974E+01 0.55377518425E+01 0.57291960364E+01
 0.56599334524E+01 0.52504608022E+01 0.44737930839E+01 0.33718344533E+01 0.20608182244E+01
 0.71910636161E+00 -.44452284151E+00 -.21009533628E+01 -.21009558843E+01 -.15151307709E+01
 -.44452390797E+00 0.93047759505E+00 0.23899407824E+01 0.37225507355E+01 0.47676494653E+01
 0.54391182524E+01 0.57282254979E+01 0.56910286729E+01 0.54279662301E+01 0.50604636960E+01
 0.46973342754E+01 0.43887530055E+01 0.41648230729E+01 0.40472348005E+01 0.40472361962E+01
 0.41648250021E+01 0.43887523871E+01 0.46973322314E+01 0.50604636757E+01 0.54279683081E+01
 0.56910293822E+01 0.57282235002E+01 0.54391165484E+01 0.47676504642E+01 0.37225522630E+01
 0.23899397478E+01 0.93047550156E+00 -.44452284151E+00 -.15151264494E+01 -.21009534124E+01
 -.15151265278E+01 -.44452288870E+00 0.93047548726E+00 0.23899397306E+01 0.37225522521E+01
 0.47676504914E+01 0.54391165901E+01 0.57282235083E+01 0.56910293690E+01 0.54279683179E+01
 0.50604636981E+01 0.46973322265E+01 0.43887523682E+01 0.41648250102E+01 0.40472362172E+01
 0.40472347925E+01 0.41648230499E+01 0.43887530103E+01 0.46973342952E+01 0.50604636884E+01
 0.54279662070E+01 0.56910286750E+01 0.57282255129E+01 0.54391182425E+01 0.47676494501E+01
 0.37225507623E+01 0.23899408383E+01 0.93047763091E+00 -.44452389264E+00 -.15151307493E+01
 -.21009558785E+01 -.15151265278E+01 -.69860293137E+00 0.50419550558E+00 0.18929691923E+01
 0.32529716978E+01 0.44005179220E+01 0.52156289112E+01 0.56545042153E+01 0.57438027520E+01
 0.55638109162E+01 0.52266293916E+01 0.48510890649E+01 0.45122839647E+01 0.42442059850E+01
 0.40725205049E+01 0.40134526623E+01 0.40725205412E+01 0.42442060315E+01 0.45122838080E+01
 0.48510886278E+01 0.52266291369E+01 0.55638113094E+01 0.57438033791E+01 0.56545042566E+01
 0.52156286440E+01 0.44005187405E+01 0.32529739374E+01 0.18929706883E+01 0.50419354004E+00
 -.69860811882E+00 -.15151310861E+01 -.18042139623E+01 -.44452288870E+00 0.50419550558E+00
 0.17156549597E+01 0.29904665621E+01 0.41390175818E+01 0.50189545328E+01 0.55561153293E+01
 0.57469308528E+01 0.56470821269E+01 0.53526845215E+01 0.49781220808E+01 0.46182585959E+01
 0.43145947851E+01 0.40953153849E+01 0.39805077552E+01 0.39805088557E+01 0.40953169411E+01
 0.43145942934E+01 0.46182567371E+01 0.49781216995E+01 0.53526861790E+01 0.56470831954E+01
 0.57469296635E+01 0.55561138920E+01 0.50189554536E+01 0.41390199315E+01 0.29904671683E+01
 0.17156530615E+01 0.50419353775E+00 -.44452320885E+00 -.96543336564E+00 -.96543363088E+00
 0.93047548726E+00 0.18929691923E+01 0.29904665621E+01 0.40443929021E+01 0.49045575450E+01
 0.54756692128E+01 0.57273987340E+01 0.56897077359E+01 0.54384950197E+01 0.50760391213E+01
 0.47035811642E+01 0.43733572551E+01 0.41146726048E+01 0.39501036371E+01 0.38936730664E+01
 0.39501034129E+01 0.41146726092E+01 0.43733575692E+01 0.47035813209E+01 0.50760388992E+01
 0.54384948176E+01 0.56897078726E+01 0.57273988551E+01 0.54756687845E+01 0.49045566700E+01
 0.40443923023E+01 0.29904668619E+01 0.18929703972E+01 0.93047701677E+00 0.27195778287E+00
 0.37914730653E-01 0.27195673212E+00 0.23899397306E+01 0.32529716978E+01 0.41390175818E+01
 0.49045575450E+01 0.54449424285E+01 0.57101835208E+01 0.57069105490E+01 0.54894603388E+01
 0.51439981538E+01 0.47669527516E+01 0.44189999093E+01 0.41299915211E+01 0.39236481986E+01
 0.38163524290E+01 0.38163517038E+01 0.39236472434E+01 0.41299919536E+01 0.44190010349E+01
 0.47669527159E+01 0.51439970168E+01 0.54894599335E+01 0.57069113766E+01 0.57101838931E+01
 0.54449413528E+01 0.49045566041E+01 0.41390185662E+01 0.32529736243E+01 0.23899400670E+01
 0.17037536899E+01 0.13237736428E+01 0.13237747072E+01 0.17037552723E+01 0.37225522521E+01
 0.44005179220E+01 0.50189545328E+01 0.54756692128E+01 0.57101835208E+01 0.57110692623E+01
 0.55125877094E+01 0.51832435930E+01 0.48084638692E+01 0.44511105914E+01 0.41411025913E+01
 0.39021998763E+01 0.37518999304E+01 0.37006530976E+01 0.37518999943E+01 0.39021998608E+01
 0.41411024423E+01 0.44511104519E+01 0.48084638552E+01 0.51832435697E+01 0.55125875158E+01
 0.57110691271E+01 0.57101839122E+01 0.54756701197E+01 0.50189552145E+01 0.44005176703E+01
 0.37225512021E+01 0.31101517716E+01 0.26839857135E+01 0.25313210686E+01 0.26839863155E+01
 0.31101528705E+01 0.47676504914E+01 0.52156289112E+01 0.55561153293E+01 0.57273987340E+01
 0.57069105490E+01 0.55125877094E+01 0.51959856119E+01 0.48288908935E+01 0.44700098610E+01
 0.41481903494E+01 0.38864755846E+01 0.37025075089E+01 0.36077605419E+01 0.36077607260E+01
 0.37025077756E+01 0.38864755293E+01 0.41481900804E+01 0.44700097958E+01 0.48288910634E+01
 0.51959856401E+01 0.55125875070E+01 0.57069105019E+01 0.57273989565E+01 0.55561152720E+01
 0.52156282410E+01 0.47676499668E+01 0.43023117083E+01 0.39190258598E+01 0.37028632031E+01
 0.37028623649E+01 0.39190243004E+01 0.43023110418E+01 0.54391165901E+01 0.56545042153E+01
 0.57469308528E+01 0.56897077359E+01 0.54894603388E+01 0.51832435930E+01 0.48288908935E+01
 0.44762286697E+01 0.41516031657E+01 0.38768998419E+01 0.36692990447E+01 0.35404522209E+01
 0.34968251674E+01 0.35404522661E+01 0.36692992136E+01 0.38769000527E+01 0.41516032282E+01
 0.44762286127E+01 0.48288909207E+01 0.51832436069E+01 0.54894598744E+01 0.56897066698E+01
 0.57469299186E+01 0.56545043707E+01 0.54391178854E+01 0.51561382604E+01 0.48776483148E+01
 0.46751764960E+01 0.46012533697E+01 0.46751763840E+01 0.48776475591E+01 0.51561367947E+01
 0.57282235083E+01 0.57438027520E+01 0.56470821269E+01 0.54384950197E+01 0.51439981538E+01
 0.48084638692E+01 0.44700098610E+01 0.41516031657E+01 0.38736870440E+01 0.36526650470E+01
 0.34999052613E+01 0.34220604378E+01 0.34220605139E+01 0.34999053700E+01 0.36526650457E+01
 0.38736870301E+01 0.41516032852E+01 0.44700099419E+01 0.48084635568E+01 0.51439974920E+01
 0.54384946218E+01 0.56470825360E+01 0.57438037445E+01 0.57282242620E+01 0.56253728345E+01
 0.54794966041E+01 0.53426862506E+01 0.52608592408E+01 0.52608595641E+01 0.53426870399E+01
 0.54794973384E+01 0.56253729029E+01 0.56910293690E+01 0.55638109162E+01 0.53526845215E+01
 0.50760391213E+01 0.47669527516E+01 0.44511105914E+01 0.41481903494E+01 0.38768998419E+01
 0.36526650470E+01 0.34863889232E+01 0.33845694560E+01 0.33503345991E+01 0.33845692447E+01
 0.34863887116E+01 0.36526650303E+01 0.38768999384E+01 0.41481902504E+01 0.44511102143E+01
 0.47669525700E+01 0.50760397429E+01 0.53526858082E+01 0.55638118071E+01 0.56910289195E+01
 0.57358667470E+01 0.57180149969E+01 0.56689249525E+01 0.56222372437E+01 0.56035025011E+01
 0.56222368485E+01 0.56689251112E+01 0.57180162207E+01 0.57358682295E+01 0.54279683179E+01
 0.52266293916E+01 0.49781220808E+01 0.47035811642E+01 0.44189999093E+01 0.41411025913E+01
 0.38864755846E+01 0.36692990447E+01 0.34999052613E+01 0.33845694560E+01 0.33263542133E+01
 0.33263541131E+01 0.33845693064E+01 0.34999052630E+01 0.36692991306E+01 0.38864755950E+01
 0.41411026328E+01 0.44190002082E+01 0.47035815681E+01 0.49781220713E+01 0.52266287708E+01
 0.54279676042E+01 0.55683997581E+01 0.56487031673E+01 0.56818519697E+01 0.56874506746E+01
 0.56844757821E+01 0.56844758039E+01 0.56874505449E+01 0.56818515077E+01 0.56487027243E+01
 0.55683998989E+01 0.50604636981E+01 0.48510890649E+01 0.46182585959E+01 0.43733572551E+01
 0.41299915211E+01 0.39021998763E+01 0.37025075089E+01 0.35404522209E+01 0.34220604378E+01
 0.33503345991E+01 0.33263541131E+01 0.33503348962E+01 0.34220606366E+01 0.35404521860E+01
 0.37025076138E+01 0.39022003710E+01 0.41299919305E+01 0.43733568094E+01 0.46182572682E+01
 0.48510878546E+01 0.50604636821E+01 0.52364831176E+01 0.53695923814E+01 0.54587376312E+01
 0.55107065623E+01 0.55358464109E+01 0.55430671828E+01 0.55358470350E+01 0.55107070020E+01
 0.54587370935E+01 0.53695909778E+01 0.52364819058E+01 0.46973322265E+01 0.45122839647E+01
 0.43145947851E+01 0.41146726048E+01 0.39236481986E+01 0.37518999304E+01 0.36077605419E+01
 0.34968251674E+01 0.34220605139E+01 0.33845692447E+01 0.33845693064E+01 0.34220606366E+01
 0.34968252580E+01 0.36077605826E+01 0.37518999016E+01 0.39236480029E+01 0.41146722357E+01
 0.43145945228E+01 0.45122841673E+01 0.46973328466E+01 0.48612976944E+01 0.49984689065E+01
 0.51057267838E+01 0.51815842650E+01 0.52283039770E+01 0.52501146989E+01 0.52501146332E+01
 0.52283039872E+01 0.51815846079E+01 0.51057272448E+01 0.49984689628E+01 0.48612971885E+01
 0.43887523682E+01 0.42442059850E+01 0.40953153849E+01 0.39501036371E+01 0.38163524290E+01
 0.37006530976E+01 0.36077607260E+01 0.35404522661E+01 0.34999053700E+01 0.34863887116E+01
 0.34999052630E+01 0.35404521860E+01 0.36077605826E+01 0.37006526557E+01 0.38163518903E+01
 0.39501037196E+01 0.40953164561E+01 0.42442073409E+01 0.43887528136E+01 0.45216747887E+01
 0.46372453070E+01 0.47317833019E+01 0.48037679968E+01 0.48535085613E+01 0.48823790624E+01
 0.48918048751E+01 0.48823787073E+01 0.48535080616E+01 0.48037678774E+01 0.47317840417E+01
 0.46372466324E+01 0.45216756379E+01 0.41648250102E+01 0.40725205049E+01 0.39805077552E+01
 0.38936730664E+01 0.38163517038E+01 0.37518999943E+01 0.37025077756E+01 0.36692992136E+01
 0.36526650457E+01 0.36526650303E+01 0.36692991306E+01 0.37025076138E+01 0.37518999016E+01
 0.38163518903E+01 0.38936735210E+01 0.39805081334E+01 0.40725204153E+01 0.41648244352E+01
 0.42525432273E+01 0.43313830723E+01 0.43981213402E+01 0.44509125530E+01 0.44893119144E+01
 0.45139459916E+01 0.45258764503E+01 0.45258764701E+01 0.45139459443E+01 0.44893116367E+01
 0.44509121092E+01 0.43981210748E+01 0.43313832995E+01 0.42525438633E+01 0.40472362172E+01
 0.40134526623E+01 0.39805088557E+01 0.39501034129E+01 0.39236472434E+01 0.39021998608E+01
 0.38864755293E+01 0.38769000527E+01 0.38736870301E+01 0.38768999384E+01 0.38864755950E+01
 0.39022003710E+01 0.39236480029E+01 0.39501037196E+01 0.39805081334E+01 0.40134512366E+01
 0.40472352234E+01 0.40800123893E+01 0.41099916982E+01 0.41356876519E+01 0.41561551383E+01
 0.41711258526E+01 0.41809613690E+01 0.41863909920E+01 0.41881069463E+01 0.41863909174E+01
 0.41809615458E+01 0.41711262118E+01 0.41561550261E+01 0.41356866821E+01 0.41099905068E+01
 0.40800121095E+01 0.40472347925E+01 0.40725205412E+01 0.40953169411E+01 0.41146726092E+01
 0.41299919536E+01 0.41411024423E+01 0.41481900804E+01 0.41516032282E+01 0.41516032852E+01
 0.41481902504E+01 0.41411026328E+01 0.41299919305E+01 0.41146722357E+01 0.40953164561E+01
 0.40725204153E+01 0.40472352234E+01 0.40206242477E+01 0.39939144209E+01 0.39682913850E+01
 0.39448527309E+01 0.39246014407E+01 0.39084447986E+01 0.38971669580E+01 0.38913644375E+01
 0.38913644141E+01 0.38971669301E+01 0.39084448817E+01 0.39246017257E+01 0.39448531042E+01
 0.39682915122E+01 0.39939140594E+01 0.40206235901E+01 0.41648230499E+01 0.42442060315E+01
 0.43145942934E+01 0.43733575692E+01 0.44190010349E+01 0.44511104519E+01 0.44700097958E+01
 0.44762286127E+01 0.44700099419E+01 0.44511102143E+01 0.44190002082E+01 0.43733568094E+01
 0.43145945228E+01 0.42442073409E+01 0.41648244352E+01 0.40800123893E+01 0.39939144209E+01
 0.39108159160E+01 0.38347111973E+01 0.37689430023E+01 0.37159843119E+01 0.36774093020E+01
 0.36540457263E+01 0.36462309746E+01 0.36540459459E+01 0.36774093228E+01 0.37159839580E+01
 0.37689427502E+01 0.38347116876E+01 0.39108170736E+01 0.39939152964E+01 0.40800120655E+01
 0.43887530103E+01 0.45122838080E+01 0.46182567371E+01 0.47035813209E+01 0.47669527159E+01
 0.48084638552E+01 0.48288910634E+01 0.48288909207E+01 0.48084635568E+01 0.47669525700E+01
 0.47035815681E+01 0.46182572682E+01 0.45122841673E+01 0.43887528136E+01 0.42525432273E+01
 0.41099916982E+01 0.39682913850E+01 0.38347111973E+01 0.37157717438E+01 0.36165777312E+01
 0.35405021198E+01 0.34893126769E+01 0.34636566762E+01 0.34636566629E+01 0.34893126801E+01
 0.35405021486E+01 0.36165776433E+01 0.37157714321E+01 0.38347108643E+01 0.39682914273E+01