   1   1   0   0
  0.1482975E+02  0.2757716E-09  0.2757716E-09  0.2757716E-09  0.5000000E-15
  1.000000000000000E-004
  CAR 
 DFT Groundstate Calculation             
     38.42453346     -6.31309649  301     10.20878949      1.00000000
     -6.313  0.0000E+00  0.0000E+00
     -6.164  0.0000E+00  0.0000E+00
     -6.015  0.0000E+00  0.0000E+00
     -5.866  0.0000E+00  0.0000E+00
     -5.717  0.0000E+00  0.0000E+00
     -5.567  0.0000E+00  0.0000E+00
     -5.418  0.0000E+00  0.0000E+00
     -5.269  0.0000E+00  0.0000E+00
     -5.120  0.0000E+00  0.0000E+00
     -4.971  0.0000E+00  0.0000E+00
     -4.822  0.0000E+00  0.0000E+00
     -4.673  0.0000E+00  0.0000E+00
     -4.524  0.3141E-16  0.4684E-17
     -4.374  0.5517E-07  0.8228E-08
     -4.225  0.1371E-03  0.2046E-04
     -4.076  0.6951E-03  0.1241E-03
     -3.927  0.1119E-02  0.2910E-03
     -3.778  0.1433E-02  0.5047E-03
     -3.629  0.1416E-02  0.7159E-03
     -3.480  0.1842E-02  0.9906E-03
     -3.331  0.1943E-02  0.1280E-02
     -3.181  0.2299E-02  0.1623E-02
     -3.032  0.1924E-02  0.1910E-02
     -2.883  0.2629E-02  0.2302E-02
     -2.734  0.2293E-02  0.2644E-02
     -2.585  0.2996E-02  0.3091E-02
     -2.436  0.2648E-02  0.3486E-02
     -2.287  0.2626E-02  0.3877E-02
     -2.138  0.3357E-02  0.4378E-02
     -1.988  0.3475E-02  0.4896E-02
     -1.839  0.2483E-02  0.5267E-02
     -1.690  0.3626E-02  0.5807E-02
     -1.541  0.3690E-02  0.6357E-02
     -1.392  0.3286E-02  0.6847E-02
     -1.243  0.3449E-02  0.7362E-02
     -1.094  0.4063E-02  0.7968E-02
     -0.945  0.3694E-02  0.8519E-02
     -0.795  0.3921E-02  0.9103E-02
     -0.646  0.3555E-02  0.9633E-02
     -0.497  0.5049E-02  0.1039E-01
     -0.348  0.3638E-02  0.1093E-01
     -0.199  0.4070E-02  0.1154E-01
     -0.050  0.4672E-02  0.1223E-01
      0.099  0.4407E-02  0.1289E-01
      0.248  0.4718E-02  0.1359E-01
      0.398  0.4115E-02  0.1421E-01
      0.547  0.4581E-02  0.1489E-01
      0.696  0.5192E-02  0.1566E-01
      0.845  0.5039E-02  0.1642E-01
      0.994  0.4695E-02  0.1712E-01
      1.143  0.4730E-02  0.1782E-01
      1.292  0.4653E-02  0.1852E-01
      1.441  0.6367E-02  0.1946E-01
      1.591  0.4344E-02  0.2011E-01
      1.740  0.5923E-02  0.2100E-01
      1.889  0.5085E-02  0.2175E-01
      2.038  0.4675E-02  0.2245E-01
      2.187  0.6155E-02  0.2337E-01
      2.336  0.6491E-02  0.2434E-01
      2.485  0.4876E-02  0.2506E-01
      2.634  0.6197E-02  0.2599E-01
      2.784  0.4903E-02  0.2672E-01
      2.933  0.6876E-02  0.2774E-01
      3.082  0.5755E-02  0.2860E-01
      3.231  0.6024E-02  0.2950E-01
      3.380  0.4927E-02  0.3024E-01
      3.529  0.5076E-02  0.3099E-01
      3.678  0.6349E-02  0.3194E-01
      3.827  0.6401E-02  0.3289E-01
      3.977  0.7236E-02  0.3397E-01
      4.126  0.5851E-02  0.3485E-01
      4.275  0.5199E-02  0.3562E-01
      4.424  0.6311E-02  0.3656E-01
      4.573  0.7485E-02  0.3768E-01
      4.722  0.6983E-02  0.3872E-01
      4.871  0.7057E-02  0.3977E-01
      5.020  0.5736E-02  0.4063E-01
      5.170  0.6833E-02  0.4165E-01
      5.319  0.7927E-02  0.4283E-01
      5.468  0.5317E-02  0.4362E-01
      5.617  0.6570E-02  0.4460E-01
      5.766  0.7676E-02  0.4575E-01
      5.915  0.6390E-02  0.4670E-01
      6.064  0.7442E-02  0.4781E-01
      6.213  0.5433E-02  0.4862E-01
      6.363  0.8030E-02  0.4982E-01
      6.512  0.7662E-02  0.5096E-01
      6.661  0.7463E-02  0.5207E-01
      6.810  0.8145E-02  0.5329E-01
      6.959  0.6825E-02  0.5430E-01
      7.108  0.7379E-02  0.5540E-01
      7.257  0.5618E-02  0.5624E-01
      7.406  0.7932E-02  0.5743E-01
      7.556  0.7127E-02  0.5849E-01
      7.705  0.8247E-02  0.5972E-01
      7.854  0.7092E-02  0.6078E-01
      8.003  0.9518E-02  0.6220E-01
      8.152  0.8026E-02  0.6339E-01
      8.301  0.6192E-02  0.6432E-01
      8.450  0.6516E-02  0.6529E-01
      8.599  0.8910E-02  0.6662E-01
      8.749  0.9391E-02  0.6802E-01
      8.898  0.7245E-02  0.6910E-01
      9.047  0.8782E-02  0.7041E-01
      9.196  0.8469E-02  0.7167E-01
      9.345  0.6627E-02  0.7266E-01
      9.494  0.6710E-02  0.7366E-01
      9.643  0.9203E-02  0.7503E-01
      9.792  0.1179E-01  0.7679E-01
      9.942  0.7435E-02  0.7790E-01
     10.091  0.7503E-02  0.7902E-01
     10.240  0.8212E-02  0.8024E-01
     10.389  0.7665E-02  0.8138E-01
     10.538  0.9332E-02  0.8278E-01
     10.687  0.9971E-02  0.8426E-01
     10.836  0.8930E-02  0.8559E-01
     10.985  0.9195E-02  0.8697E-01
     11.135  0.7346E-02  0.8806E-01
     11.284  0.1025E-01  0.8959E-01
     11.433  0.8605E-02  0.9087E-01
     11.582  0.9021E-02  0.9222E-01
     11.731  0.1020E-01  0.9374E-01
     11.880  0.7413E-02  0.9484E-01
     12.029  0.1123E-01  0.9652E-01
     12.178  0.8957E-02  0.9786E-01
     12.328  0.1049E-01  0.9942E-01
     12.477  0.9084E-02  0.1008E+00
     12.626  0.8681E-02  0.1021E+00
     12.775  0.1061E-01  0.1037E+00
     12.924  0.1019E-01  0.1052E+00
     13.073  0.1155E-01  0.1069E+00
     13.222  0.1020E-01  0.1084E+00
     13.371  0.9256E-02  0.1098E+00
     13.521  0.1341E-01  0.1118E+00
     13.670  0.1081E-01  0.1134E+00
     13.819  0.1095E-01  0.1150E+00
     13.968  0.1040E-01  0.1166E+00
     14.117  0.1149E-01  0.1183E+00
     14.266  0.1209E-01  0.1201E+00
     14.415  0.7748E-02  0.1213E+00
     14.564  0.8740E-02  0.1226E+00
     14.714  0.1211E-01  0.1244E+00
     14.863  0.1181E-01  0.1261E+00
     15.012  0.7505E-02  0.1273E+00
     15.161  0.1041E-01  0.1288E+00
     15.310  0.7707E-02  0.1300E+00
     15.459  0.1006E-01  0.1315E+00
     15.608  0.9951E-02  0.1329E+00
     15.757  0.9532E-02  0.1344E+00
     15.907  0.8039E-02  0.1356E+00
     16.056  0.1134E-01  0.1372E+00
     16.205  0.8849E-02  0.1386E+00
     16.354  0.7901E-02  0.1397E+00
     16.503  0.8589E-02  0.1410E+00
     16.652  0.1226E-01  0.1429E+00
     16.801  0.8112E-02  0.1441E+00
     16.950  0.1144E-01  0.1458E+00
     17.100  0.7811E-02  0.1469E+00
     17.249  0.8875E-02  0.1483E+00
     17.398  0.1065E-01  0.1498E+00
     17.547  0.1217E-01  0.1517E+00
     17.696  0.8812E-02  0.1530E+00
     17.845  0.1004E-01  0.1545E+00
     17.994  0.9618E-02  0.1559E+00
     18.143  0.1143E-01  0.1576E+00
     18.293  0.1118E-01  0.1593E+00
     18.442  0.9941E-02  0.1608E+00
     18.591  0.9077E-02  0.1621E+00
     18.740  0.1373E-01  0.1642E+00
     18.889  0.8643E-02  0.1655E+00
     19.038  0.1065E-01  0.1670E+00
     19.187  0.1036E-01  0.1686E+00
     19.336  0.1235E-01  0.1704E+00
     19.486  0.1110E-01  0.1721E+00
     19.635  0.1117E-01  0.1737E+00
     19.784  0.8520E-02  0.1750E+00
     19.933  0.1381E-01  0.1771E+00
     20.082  0.9932E-02  0.1786E+00
     20.231  0.8611E-02  0.1798E+00
     20.380  0.1021E-01  0.1814E+00
     20.529  0.1407E-01  0.1835E+00
     20.679  0.1285E-01  0.1854E+00
     20.828  0.1136E-01  0.1871E+00
     20.977  0.1298E-01  0.1890E+00
     21.126  0.1258E-01  0.1909E+00
     21.275  0.1218E-01  0.1927E+00
     21.424  0.1242E-01  0.1946E+00
     21.573  0.1039E-01  0.1961E+00
     21.722  0.1039E-01  0.1977E+00
     21.872  0.1359E-01  0.1997E+00
     22.021  0.1193E-01  0.2015E+00
     22.170  0.1103E-01  0.2031E+00
     22.319  0.1143E-01  0.2048E+00
     22.468  0.9438E-02  0.2062E+00
     22.617  0.1325E-01  0.2082E+00
     22.766  0.1139E-01  0.2099E+00
     22.915  0.1196E-01  0.2117E+00
     23.065  0.8755E-02  0.2130E+00
     23.214  0.1036E-01  0.2145E+00
     23.363  0.1392E-01  0.2166E+00
     23.512  0.1451E-01  0.2188E+00
     23.661  0.1651E-01  0.2212E+00
     23.810  0.1480E-01  0.2234E+00
     23.959  0.1089E-01  0.2251E+00
     24.108  0.1191E-01  0.2268E+00
     24.258  0.1226E-01  0.2287E+00
     24.407  0.1242E-01  0.2305E+00
     24.556  0.1545E-01  0.2328E+00
     24.705  0.1186E-01  0.2346E+00
     24.854  0.1498E-01  0.2368E+00
     25.003  0.1053E-01  0.2384E+00
     25.152  0.1273E-01  0.2403E+00
     25.301  0.1028E-01  0.2418E+00
     25.451  0.1480E-01  0.2440E+00
     25.600  0.1240E-01  0.2459E+00
     25.749  0.1070E-01  0.2475E+00
     25.898  0.1648E-01  0.2499E+00
     26.047  0.1585E-01  0.2523E+00
     26.196  0.1456E-01  0.2545E+00
     26.345  0.1116E-01  0.2561E+00
     26.494  0.9943E-02  0.2576E+00
     26.644  0.1366E-01  0.2596E+00
     26.793  0.1088E-01  0.2613E+00
     26.942  0.1459E-01  0.2634E+00
     27.091  0.1430E-01  0.2656E+00
     27.240  0.1052E-01  0.2671E+00
     27.389  0.1127E-01  0.2688E+00
     27.538  0.1014E-01  0.2703E+00
     27.688  0.1135E-01  0.2720E+00
     27.837  0.1578E-01  0.2744E+00
     27.986  0.9283E-02  0.2758E+00
     28.135  0.9619E-02  0.2772E+00
     28.284  0.1088E-01  0.2788E+00
     28.433  0.1315E-01  0.2808E+00
     28.582  0.1062E-01  0.2824E+00
     28.731  0.1128E-01  0.2841E+00
     28.881  0.8503E-02  0.2853E+00
     29.030  0.9637E-02  0.2868E+00
     29.179  0.7927E-02  0.2879E+00
     29.328  0.9258E-02  0.2893E+00
     29.477  0.1212E-01  0.2911E+00
     29.626  0.1219E-01  0.2929E+00
     29.775  0.1220E-01  0.2948E+00
     29.924  0.8128E-02  0.2960E+00
     30.074  0.9302E-02  0.2974E+00
     30.223  0.1164E-01  0.2991E+00
     30.372  0.1013E-01  0.3006E+00
     30.521  0.1034E-01  0.3022E+00
     30.670  0.8177E-02  0.3034E+00
     30.819  0.7794E-02  0.3045E+00
     30.968  0.6723E-02  0.3055E+00
     31.117  0.6661E-02  0.3065E+00
     31.267  0.5460E-02  0.3073E+00
     31.416  0.6437E-02  0.3083E+00
     31.565  0.5057E-02  0.3091E+00
     31.714  0.4217E-02  0.3097E+00
     31.863  0.6600E-02  0.3107E+00
     32.012  0.3920E-02  0.3113E+00
     32.161  0.3737E-02  0.3118E+00
     32.310  0.4582E-02  0.3125E+00
     32.460  0.4790E-02  0.3132E+00
     32.609  0.2231E-02  0.3135E+00
     32.758  0.4451E-02  0.3142E+00
     32.907  0.3196E-02  0.3147E+00
     33.056  0.3916E-02  0.3153E+00
     33.205  0.3218E-02  0.3157E+00
     33.354  0.3164E-02  0.3162E+00
     33.503  0.2145E-02  0.3165E+00
     33.653  0.1991E-02  0.3168E+00
     33.802  0.2704E-02  0.3172E+00
     33.951  0.2979E-02  0.3177E+00
     34.100  0.2673E-02  0.3181E+00
     34.249  0.1800E-02  0.3183E+00
     34.398  0.9187E-03  0.3185E+00
     34.547  0.1654E-02  0.3187E+00
     34.696  0.1672E-02  0.3190E+00
     34.846  0.1532E-02  0.3192E+00
     34.995  0.9997E-03  0.3194E+00
     35.144  0.7152E-03  0.3195E+00
     35.293  0.7368E-03  0.3196E+00
     35.442  0.8985E-03  0.3197E+00
     35.591  0.2788E-03  0.3198E+00
     35.740  0.4001E-03  0.3198E+00
     35.889  0.8181E-03  0.3199E+00
     36.039  0.4452E-04  0.3199E+00
     36.188  0.1438E-03  0.3200E+00
     36.337  0.2251E-03  0.3200E+00
     36.486  0.3425E-04  0.3200E+00
     36.635  0.1333E-06  0.3200E+00
     36.784  0.9396E-16  0.3200E+00
     36.933  0.0000E+00  0.3200E+00
     37.082  0.0000E+00  0.3200E+00
     37.232  0.0000E+00  0.3200E+00
     37.381  0.0000E+00  0.3200E+00
     37.530  0.0000E+00  0.3200E+00
     37.679  0.0000E+00  0.3200E+00
     37.828  0.0000E+00  0.3200E+00
     37.977  0.0000E+00  0.3200E+00
     38.126  0.0000E+00  0.3200E+00
     38.275  0.0000E+00  0.3200E+00
     38.425  0.0000E+00  0.3200E+00
