    1    1   50    1
  0.1482975E+02  0.2757716E-09  0.2757716E-09  0.2757716E-09  0.5000000E-15
  1.000000000000000E-004
  CAR 
 DFT Groundstate Calculation             
      4    624      8
 
  0.0000000E+00  0.0000000E+00  0.0000000E+00  0.4555394E-04
      1         -4.279568   1.000000
      2         21.334342   0.000000
      3         21.334343   0.000000
      4         21.334343   0.000000
      5         22.115255   0.000000
      6         22.115255   0.000000
      7         22.115255   0.000000
      8         27.453513   0.000000
 
  0.3571429E-01  0.1283886E-17 -0.5067578E-14  0.3644315E-03
      1         -4.242377   1.000000
      2         20.399119   0.000000
      3         21.050710   0.000000
      4         21.050710   0.000000
      5         22.446074   0.000000
      6         22.446074   0.000000
      7         22.718635   0.000000
      8         27.768023   0.000000
 
  0.7142857E-01 -0.2115981E-17  0.5183011E-15  0.3644315E-03
      1         -4.130856   1.000000
      2         18.988962   0.000000
      3         20.605015   0.000000
      4         20.605015   0.000000
      5         23.025320   0.000000
      6         23.025321   0.000000
      7         23.208946   0.000000
      8         28.261816   0.000000
 
  0.1071429E+00 -0.7453592E-18 -0.4559599E-14  0.3644315E-03
      1         -3.945131   1.000000
      2         17.481162   0.000000
      3         20.182204   0.000000
      4         20.182205   0.000000
      5         23.410692   0.000000
      6         23.635405   0.000000
      7         23.635406   0.000000
      8         27.683500   0.000000
 
  0.1428571E+00  0.2783183E-18  0.4579948E-14  0.3644315E-03
      1         -3.685416   1.000000
      2         15.949650   0.000000
      3         19.808373   0.000000
      4         19.808374   0.000000
      5         23.448873   0.000000
      6         24.154703   0.000000
      7         24.154705   0.000000
      8         27.199699   0.000000
 
  0.1785714E+00 -0.5463426E-17 -0.5050638E-15  0.3644315E-03
      1         -3.352026   1.000000
      2         14.429076   0.000000
      3         19.489841   0.000000
      4         19.489842   0.000000
      5         23.413233   0.000000
      6         24.359364   0.000000
      7         24.359367   0.000000
      8         27.087247   0.000000
 
  0.2142857E+00  0.4407341E-17  0.5139189E-14  0.3644315E-03
      1         -2.945350   1.000000
      2         12.938453   0.000000
      3         19.228350   0.000000
      4         19.228351   0.000000
      5         23.354200   0.000000
      6         24.116641   0.000000
      7         24.116644   0.000000
      8         27.507447   0.000000
 
  0.2500000E+00 -0.1334403E-17  0.6805454E-16  0.3644315E-03
      1         -2.465885   1.000000
      2         11.489203   0.000000
      3         19.023666   0.000000
      4         19.023667   0.000000
      5         23.300008   0.000000
      6         23.625523   0.000000
      7         23.625526   0.000000
      8         28.275491   0.000000
 
  0.2857143E+00  0.7495530E-17 -0.5016264E-14  0.3644315E-03
      1         -1.914244   1.000000
      2         10.088802   0.999655
      3         18.874150   0.000000
      4         18.874151   0.000000
      5         23.071261   0.000000
      6         23.071264   0.000000
      7         23.266657   0.000000
      8         28.327331   0.000000
 
  0.3214286E+00  0.3141565E-17  0.6137642E-15  0.3644315E-03
      1         -1.291200   1.000000
      2          8.742454   1.000000
      3         18.776571   0.000000
      4         18.776572   0.000000
      5         22.532626   0.000000
      6         22.532629   0.000000
      7         23.262266   0.000000
      8         27.708019   0.000000
 
  0.3571429E+00 -0.1906290E-17 -0.4498310E-14  0.3644315E-03
      1         -0.597789   1.000000
      2          7.454210   1.000000
      3         18.725531   0.000000
      4         18.725532   0.000000
      5         22.045244   0.000000
      6         22.045247   0.000000
      7         23.288545   0.000000
      8         27.152773   0.000000
 
  0.3928571E+00  0.1247476E-16  0.4619900E-14  0.3644315E-03
      1          0.164374   1.000000
      2          6.227671   1.000000
      3         18.712370   0.000000
      4         18.712371   0.000000
      5         21.631509   0.000000
      6         21.631512   0.000000
      7         23.340503   0.000000
      8         26.678919   0.000000
 
  0.4285714E+00  0.8120793E-17 -0.4914796E-15  0.3644315E-03
      1          0.991887   1.000000
      2          5.067642   1.000000
      3         18.724030   0.000000
      4         18.724031   0.000000
      5         21.311453   0.000000
      6         21.311456   0.000000
      7         23.405159   0.000000
      8         26.307727   0.000000
 
  0.4642857E+00  0.3072939E-17  0.5137854E-14  0.3644315E-03
      1          1.871376   1.000000
      2          3.988311   1.000000
      3         18.743028   0.000000
      4         18.743029   0.000000
      5         21.106214   0.000000
      6         21.106217   0.000000
      7         23.460898   0.000000
      8         26.066089   0.000000
 
  0.5000000E+00 -0.2668805E-17  0.1361091E-15  0.1822157E-03
      1          2.568084   1.000000
      2          3.224945   1.000000
      3         18.751963   0.000000
      4         18.751964   0.000000
      5         21.035032   0.000000
      6         21.035034   0.000000
      7         23.483346   0.000000
      8         25.981364   0.000000
 
  0.3571429E-01  0.3571429E-01  0.5472090E-17  0.2733236E-03
      1         -4.229983   1.000000
      2         20.543993   0.000000
      3         20.543993   0.000000
      4         21.215058   0.000000
      5         21.811386   0.000000
      6         22.968176   0.000000
      7         22.968176   0.000000
      8         27.857290   0.000000
 
  0.7142857E-01  0.3571429E-01 -0.5064022E-14  0.1093294E-02
      1         -4.143242   1.000000
      2         19.454178   0.000000
      3         20.049604   0.000000
      4         21.054350   0.000000
      5         21.931689   0.000000
      6         23.515374   0.000000
      7         23.568019   0.000000
      8         27.757721   0.000000
 
  0.1071429E+00  0.3571429E-01  0.5183011E-15  0.1093294E-02
      1         -3.982254   1.000000
      2         18.000269   0.000000
      3         19.601252   0.000000
      4         20.686411   0.000000
      5         22.452317   0.000000
      6         23.839930   0.000000
      7         24.187844   0.000000
      8         27.052517   0.000000
 
  0.1428571E+00  0.3571429E-01 -0.9956093E-15  0.1093294E-02
      1         -3.747212   1.000000
      2         16.481134   0.000000
      3         19.208109   0.000000
      4         20.312994   0.000000
      5         22.956620   0.000000
      6         23.995399   0.000000
      7         24.747632   0.000000
      8         26.420315   0.000000
 
  0.1785714E+00  0.3571429E-01  0.4607010E-14  0.1093294E-02
      1         -3.438389   1.000000
      2         14.958344   0.000000
      3         18.873664   0.000000
      4         19.977429   0.000000
      5         23.244461   0.000000
      6         24.041295   0.000000
      7         25.066414   0.000000
      8         26.098492   0.000000
 
  0.2142857E+00  0.3571429E-01 -0.4776552E-15  0.1093294E-02
      1         -3.056148   1.000000
      2         13.458380   0.000000
      3         18.599370   0.000000
      4         19.688722   0.000000
      5         23.218279   0.000000
      6         23.892491   0.000000
      7         24.950071   0.000000
      8         26.345911   0.000000
 
  0.2500000E+00  0.3571429E-01  0.5152720E-14  0.1093294E-02
      1         -2.600953   1.000000
      2         11.995710   0.000000
      3         18.385656   0.000000
      4         19.447729   0.000000
      5         22.886552   0.000000
      6         23.718156   0.000000
      7         24.513819   0.000000
      8         27.024517   0.000000
 
  0.2857143E+00  0.3571429E-01  0.1228718E-15  0.1093294E-02
      1         -2.073372   1.000000
      2         10.579258   0.000000
      3         18.232282   0.000000
      4         19.250935   0.000000
      5         22.392308   0.000000
      6         23.633631   0.000000
      7         23.965250   0.000000
      8         27.856021   0.000000
 
  0.3214286E+00  0.3571429E-01 -0.5126592E-14  0.1093294E-02
      1         -1.474118   1.000000
      2          9.215044   1.000000
      3         18.138384   0.000000
      4         19.090521   0.000000
      5         21.890362   0.000000
      6         23.405025   0.000000
      7         23.601875   0.000000
      8         28.089020   0.000000
 
  0.3571429E+00  0.3571429E-01  0.5589470E-15  0.1093294E-02
      1         -0.804119   1.000000
      2          7.907498   1.000000
      3         18.102408   0.000000
      4         18.953466   0.000000
      5         21.451254   0.000000
      6         22.875108   0.000000
      7         23.606267   0.000000
      8         27.608390   0.000000
 
  0.3928571E+00  0.3571429E-01 -0.1010821E-14  0.1093294E-02
      1         -0.064734   1.000000
      2          6.660335   1.000000
      3         18.121825   0.000000
      4         18.821675   0.000000
      5         21.114681   0.000000
      6         22.396192   0.000000
      7         23.638332   0.000000
      8         27.136401   0.000000
 
  0.4285714E+00  0.3571429E-01  0.4674718E-14  0.1093294E-02
      1          0.741525   1.000000
      2          5.477668   1.000000
      3         18.192697   0.000000
      4         18.676965   0.000000
      5         20.908431   0.000000
      6         21.981375   0.000000
      7         23.685963   0.000000
      8         26.749915   0.000000
 
  0.4642857E+00  0.3571429E-01 -0.4921735E-15  0.1093294E-02
      1          1.606977   1.000000
      2          4.368170   1.000000
      3         18.308889   0.000000
      4         18.511793   0.000000
      5         20.844792   0.000000
      6         21.641730   0.000000
      7         23.730290   0.000000
      8         26.481065   0.000000
 
  0.5000000E+00  0.3571429E-01  0.5192672E-14  0.1093294E-02
      1          2.463191   1.000000
      2          3.400905   1.000000
      3         18.335314   0.000000
      4         18.460982   0.000000
      5         20.916943   0.000000
      6         21.389299   0.000000
      7         23.749091   0.000000
      8         26.357536   0.000000
 
 -0.4642857E+00  0.3571429E-01 -0.1361091E-15  0.1093294E-02
      1          2.196662   1.000000
      2          3.689642   1.000000
      3         18.166343   0.000000
      4         18.635322   0.000000
      5         21.106942   0.000000
      6         21.238955   0.000000
      7         23.728677   0.000000
      8         26.395070   0.000000
 
 -0.4285714E+00  0.3571429E-01 -0.5248877E-14  0.1093294E-02
      1          1.313034   1.000000
      2          4.728689   1.000000
      3         18.023061   0.000000
      4         18.814630   0.000000
      5         21.208048   0.000000
      6         21.396340   0.000000
      7         23.674924   0.000000
      8         26.587292   0.000000
 
 -0.3928571E+00  0.3571429E-01  0.4921735E-15  0.1093294E-02
      1          0.465600   1.000000
      2          5.864360   1.000000
      3         17.918779   0.000000
      4         18.983144   0.000000
      5         21.311245   0.000000
      6         21.770368   0.000000
      7         23.608175   0.000000
      8         26.910740   0.000000
 
 -0.3571429E+00  0.3571429E-01 -0.1132412E-14  0.1093294E-02
      1         -0.318794   1.000000
      2          7.069085   1.000000
      3         17.862245   0.000000
      4         19.135649   0.000000
      5         21.551129   0.000000
      6         22.217289   0.000000
      7         23.549442   0.000000
      8         27.337772   0.000000
 
 -0.3214286E+00  0.3571429E-01  0.4553127E-14  0.1093294E-02
      1         -1.035246   1.000000
      2          8.336755   1.000000
      3         17.858980   0.000000
      4         19.281270   0.000000
      5         21.913365   0.000000
      6         22.725892   0.000000
      7         23.512998   0.000000
      8         27.840701   0.000000
 
 -0.2857143E+00  0.3571429E-01 -0.6408259E-15  0.1093294E-02
      1         -1.681785   1.000000
      2          9.663589   1.000000
      3         17.912430   0.000000
      4         19.436879   0.000000
      5         22.370745   0.000000
      6         23.279545   0.000000
      7         23.508104   0.000000
      8         28.374727   0.000000
 
 -0.2500000E+00  0.3571429E-01  0.5016264E-14  0.1093294E-02
      1         -2.257240   1.000000
      2         11.045711   0.000000
      3         18.024700   0.000000
      4         19.618507   0.000000
      5         22.884753   0.000000
      6         23.517006   0.000000
      7         23.872490   0.000000
      8         27.831804   0.000000
 
 -0.2142857E+00  0.3571429E-01 -0.1323727E-16  0.1093294E-02
      1         -2.760762   1.000000
      2         12.478279   0.000000
      3         18.196979   0.000000
      4         19.837713   0.000000
      5         23.387676   0.000000
      6         23.557402   0.000000
      7         24.430185   0.000000
      8         26.987241   0.000000
 
 -0.1785714E+00  0.3571429E-01 -0.5084372E-14  0.1093294E-02
      1         -3.191696   1.000000
      2         13.954472   0.000000
      3         18.429698   0.000000
      4         20.101396   0.000000
      5         23.600036   0.000000
      6         23.721562   0.000000
      7         24.840996   0.000000
      8         26.434392   0.000000
 
 -0.1428571E+00  0.3571429E-01  0.5189416E-15  0.1093294E-02
      1         -3.549510   1.000000
      2         15.463973   0.000000
      3         18.722556   0.000000
      4         20.412154   0.000000
      5         23.617414   0.000000
      6         23.635339   0.000000
      7         24.872596   0.000000
      8         26.414781   0.000000
 
 -0.1071429E+00  0.3571429E-01 -0.1009193E-14  0.1093294E-02
      1         -3.833772   1.000000
      2         16.989671   0.000000
      3         19.074255   0.000000
      4         20.766358   0.000000
      5         23.168895   0.000000
      6         23.558833   0.000000
      7         24.500568   0.000000
      8         26.875730   0.000000
 
 -0.7142857E-01  0.3571429E-01  0.4559425E-14  0.1093294E-02
      1         -4.044156   1.000000
      2         18.499838   0.000000
      3         19.481708   0.000000
      4         21.139669   0.000000
      5         22.596176   0.000000
      6         23.350394   0.000000
      7         23.965785   0.000000
      8         27.535027   0.000000
 
 -0.3571429E-01  0.3571429E-01 -0.5113622E-15  0.5466472E-03
      1         -4.180414   1.000000
      2         19.898762   0.000000
      3         19.962798   0.000000
      4         21.364235   0.000000
      5         22.211188   0.000000
      6         22.975643   0.000000
      7         23.336979   0.000000
      8         28.204581   0.000000
 
  0.7142857E-01  0.7142857E-01  0.1094418E-16  0.2733236E-03
      1         -4.081301   1.000000
      2         19.528810   0.000000
      3         19.528810   0.000000
      4         20.874431   0.000000
      5         21.088193   0.000000
      6         24.168569   0.000000
      7         24.168570   0.000000
      8         27.003309   0.000000
 
  0.1071429E+00  0.7142857E-01 -0.5057257E-14  0.1093294E-02
      1         -3.945107   1.000000
      2         18.485807   0.000000
      3         19.058628   0.000000
      4         20.611598   0.000000
      5         21.185441   0.000000
      6         24.659748   0.000000
      7         24.794034   0.000000
      8         26.183582   0.000000
 
  0.1428571E+00  0.7142857E-01  0.4088535E-14  0.1093294E-02
      1         -3.734818   1.000000
      2         17.040786   0.000000
      3         18.645358   0.000000
      4         20.247379   0.000000
      5         21.707069   0.000000
      6         24.889653   0.000000
      7         25.386332   0.000000
      8         25.436744   0.000000
 
  0.1785714E+00  0.7142857E-01 -0.9820784E-15  0.1093294E-02
      1         -3.450682   1.000000
      2         15.534885   0.000000
      3         18.291927   0.000000
      4         19.900778   0.000000
      5         22.159075   0.000000
      6         24.700082   0.000000
      7         25.171572   0.000000
      8         25.804376   0.000000
 
  0.2142857E+00  0.7142857E-01  0.4607357E-14  0.1093294E-02
      1         -3.093028   1.000000
      2         14.034180   0.000000
      3         17.999795   0.000000
      4         19.587068   0.000000
      5         22.263257   0.000000
      6         24.447723   0.000000
      7         25.370363   0.000000
      8         25.830325   0.000000
 
  0.2500000E+00  0.7142857E-01 -0.4498996E-15  0.1093294E-02
      1         -2.662287   1.000000
      2         12.562844   0.000000
      3         17.769630   0.000000
      4         19.307223   0.000000
      5         21.951542   0.000000
      6         24.434507   0.000000
      7         25.477908   0.000000
      8         25.851666   0.000000
 
  0.2857143E+00  0.7142857E-01  0.5180128E-14  0.1093294E-02
      1         -2.158991   1.000000
      2         11.133346   0.000000
      3         17.601622   0.000000
      4         19.053762   0.000000
      5         21.475288   0.000000
      6         24.452016   0.000000
      7         24.958079   0.000000
      8         26.603379   0.000000
 
  0.3214286E+00  0.7142857E-01  0.6805454E-16  0.1093294E-02
      1         -1.583796   1.000000
      2          9.753333   1.000000
      3         17.495600   0.000000
      4         18.811264   0.000000
      5         21.013036   0.000000
      6         24.398773   0.000000
      7         24.456608   0.000000
      8         27.487724   0.000000
 
  0.3571429E+00  0.7142857E-01 -0.4961446E-14  0.1093294E-02
      1         -0.937543   1.000000
      2          8.428029   1.000000
      3         17.451040   0.000000
      4         18.558899   0.000000
      5         20.645460   0.000000
      6         23.853947   0.000000
      7         24.462242   0.000000
      8         28.164409   0.000000
 
  0.3928571E+00  0.7142857E-01  0.4074191E-14  0.1093294E-02
      1         -0.221402   1.000000
      2          7.161516   1.000000
      3         17.467050   0.000000
      4         18.280921   0.000000
      5         20.411508   0.000000
      6         23.348328   0.000000
      7         24.474852   0.000000
      8         28.013442   0.000000
 
  0.4285714E+00  0.7142857E-01 -0.9553103E-15  0.1093294E-02
      1          0.562669   1.000000
      2          5.957679   1.000000
      3         17.542226   0.000000
      4         17.979659   0.000000
      5         20.319313   0.000000
      6         22.895242   0.000000
      7         24.489318   0.000000
      8         27.685229   0.000000
 
  0.4642857E+00  0.7142857E-01  0.4619900E-14  0.1093294E-02
      1          1.409817   1.000000
      2          4.822643   1.000000
      3         17.673913   0.000000
      4         17.674501   0.000000
      5         20.355296   0.000000
      6         22.503261   0.000000
      7         24.492488   0.000000
      8         27.437690   0.000000
 
  0.5000000E+00  0.7142857E-01 -0.3818450E-15  0.1093294E-02
      1          2.293511   1.000000
      2          3.783683   1.000000
      3         17.385641   0.000000
      4         17.860724   0.000000
      5         20.500154   0.000000
      6         22.179125   0.000000
      7         24.469431   0.000000
      8         27.319506   0.000000
 
 -0.4642857E+00  0.7142857E-01  0.4975965E-14  0.1093294E-02
      1          2.560483   1.000000
      2          3.494487   1.000000
      3         17.131783   0.000000
      4         18.096264   0.000000
      5         20.738113   0.000000
      6         21.929408   0.000000
      7         24.413578   0.000000
      8         27.346007   0.000000
 
 -0.4285714E+00  0.7142857E-01 -0.1361091E-15  0.1093294E-02
      1          1.703695   1.000000
      2          4.462145   1.000000
      3         16.923459   0.000000
      4         18.374202   0.000000
      5         21.058107   0.000000
      6         21.761722   0.000000
      7         24.332768   0.000000
      8         27.510626   0.000000
 
 -0.3928571E+00  0.7142857E-01 -0.5083037E-14  0.1093294E-02
      1          0.838464   1.000000
      2          5.571033   1.000000
      3         16.767629   0.000000
      4         18.684449   0.000000
      5         21.452222   0.000000
      6         21.685720   0.000000
      7         24.244195   0.000000
      8         27.792262   0.000000
 
 -0.3571429E+00  0.7142857E-01  0.3953294E-14  0.1093294E-02
      1          0.032519   1.000000
      2          6.752774   1.000000
      3         16.668649   0.000000
      4         19.013331   0.000000
      5         21.713324   0.000000
      6         21.913987   0.000000
      7         24.164848   0.000000
      8         28.162941   0.000000
 
 -0.3214286E+00  0.7142857E-01 -0.1022778E-14  0.1093294E-02
      1         -0.706555   1.000000
      2          7.998684   1.000000
      3         16.629256   0.000000
      4         19.345132   0.000000
      5         21.856445   0.000000
      6         22.436848   0.000000
      7         24.106131   0.000000
      8         28.583812   0.000000
 
 -0.2857143E+00  0.7142857E-01  0.4553127E-14  0.1093294E-02
      1         -1.376260   1.000000
      2          9.304533   1.000000
      3         16.651170   0.000000
      4         19.667314   0.000000
      5         22.119920   0.000000
      6         23.012314   0.000000
      7         24.072712   0.000000
      8         28.478793   0.000000
 
 -0.2500000E+00  0.7142857E-01 -0.5311914E-15  0.1093294E-02
      1         -1.975248   1.000000
      2         10.666391   0.000000
      3         16.735421   0.000000
      4         19.977154   0.000000
      5         22.489810   0.000000
      6         23.626262   0.000000
      7         24.063073   0.000000
      8         27.447971   0.000000
 
 -0.2142857E+00  0.7142857E-01  0.4989202E-14  0.1093294E-02
      1         -2.502589   1.000000
      2         12.079410   0.000000
      3         16.882597   0.000000
      4         20.282619   0.000000
      5         22.916591   0.000000
      6         24.061772   0.000000
      7         24.257628   0.000000
      8         26.536811   0.000000
 
 -0.1785714E+00  0.7142857E-01 -0.1323727E-16  0.1093294E-02
      1         -2.957577   1.000000
      2         13.536712   0.000000
      3         17.092952   0.000000
      4         20.595436   0.000000
      5         23.268824   0.000000
      6         24.062653   0.000000
      7         24.826573   0.000000
      8         25.866653   0.000000
 
 -0.1428571E+00  0.7142857E-01 -0.5084372E-14  0.1093294E-02
      1         -3.339641   1.000000
      2         15.027424   0.000000
      3         17.366833   0.000000
      4         20.921215   0.000000
      5         23.274443   0.000000
      6         24.024459   0.000000
      7         25.165244   0.000000
      8         25.700731   0.000000
 
 -0.1071429E+00  0.7142857E-01  0.4061941E-14  0.1093294E-02
      1         -3.648318   1.000000
      2         16.530471   0.000000
      3         17.707296   0.000000
      4         21.240981   0.000000
      5         22.883100   0.000000
      6         23.902727   0.000000
      7         25.053993   0.000000
      8         26.099170   0.000000
 
 -0.7142857E-01  0.7142857E-01 -0.9953157E-15  0.5466472E-03
      1         -3.883246   1.000000
      2         17.918624   0.000000
      3         18.207245   0.000000
      4         21.419321   0.000000
      5         22.498649   0.000000
      6         23.662083   0.000000
      7         24.614301   0.000000
      8         26.775064   0.000000
 
  0.1071429E+00  0.1071429E+00  0.1163339E-16  0.2733236E-03
      1         -3.833730   1.000000
      2         18.567448   0.000000
      3         18.567449   0.000000
      4         20.209780   0.000000
      5         20.348778   0.000000
      6         25.267830   0.000000
      7         25.430215   0.000000
      8         25.430216   0.000000
 
  0.1428571E+00  0.1071429E+00 -0.1496737E-14  0.1093294E-02
      1         -3.648256   1.000000
      2         17.562809   0.000000
      3         18.133553   0.000000
      4         19.907058   0.000000
      5         20.409573   0.000000
      6         24.409753   0.000000
      7         25.918301   0.000000
      8         26.053893   0.000000
 
  0.1785714E+00  0.1071429E+00  0.4102587E-14  0.1093294E-02
      1         -3.388897   1.000000
      2         16.139456   0.000000
      3         17.759864   0.000000
      4         19.554096   0.000000
      5         20.865190   0.000000
      6         23.720770   0.000000
      7         26.157022   0.000000
      8         26.558384   0.000000
 
  0.2142857E+00  0.1071429E+00 -0.9546698E-15  0.1093294E-02
      1         -3.055956   1.000000
      2         14.657632   0.000000
      3         17.447924   0.000000
      4         19.209328   0.000000
      5         21.119439   0.000000
      6         23.430781   0.000000
      7         26.263635   0.000000
      8         26.731244   0.000000
 
  0.2500000E+00  0.1071429E+00  0.4606663E-14  0.1093294E-02
      1         -2.649828   1.000000
      2         13.186223   0.000000
      3         17.198546   0.000000
      4         18.878678   0.000000
      5         20.923171   0.000000
      6         23.725210   0.000000
      7         26.338663   0.000000
      8         26.487116   0.000000
 
  0.2857143E+00  0.1071429E+00 -0.4228379E-15  0.1093294E-02
      1         -2.171010   1.000000
      2         11.748363   0.000000
      3         17.012105   0.000000
      4         18.548861   0.000000
      5         20.506649   0.000000
      6         24.329336   0.000000
      7         26.014252   0.000000
      8         26.477917   0.000000
 
  0.3214286E+00  0.1071429E+00  0.5098249E-14  0.1093294E-02
      1         -1.620109   1.000000
      2         10.355466   0.000017
      3         16.888687   0.000000
      4         18.198458   0.000000
      5         20.110996   0.000000
      6         24.904737   0.000000
      7         25.469373   0.000000
      8         26.817762   0.000000
 
  0.3571429E+00  0.1071429E+00  0.1228718E-15  0.1093294E-02
      1         -0.997898   1.000000
      2          9.014437   1.000000
      3         16.828133   0.000000
      4         17.813425   0.000000
      5         19.829306   0.000000
      6         24.922075   0.000000
      7         25.255407   0.000000
      8         27.471696   0.000000
 
  0.3928571E+00  0.1071429E+00 -0.1501020E-14  0.1093294E-02
      1         -0.305401   1.000000
      2          7.730129   1.000000
      3         16.830073   0.000000
      4         17.401968   0.000000
      5         19.681570   0.000000
      6         24.403634   0.000000
      7         25.409272   0.000000
      8         28.328804   0.000000
 
  0.4285714E+00  0.1071429E+00  0.4129702E-14  0.1093294E-02
      1          0.455793   1.000000
      2          6.506582   1.000000
      3         16.893880   0.000000
      4         16.988106   0.000000
      5         19.655780   0.000000
      6         23.930068   0.000000
      7         25.461219   0.000000
      8         28.826911   0.000000
 
  0.4642857E+00  0.1071429E+00 -0.1010128E-14  0.1093294E-02
      1          1.282350   1.000000
      2          5.348768   1.000000
      3         16.595517   0.000000
      4         17.018625   0.000000
      5         19.734105   0.000000
      6         23.510708   0.000000
      7         25.453774   0.000000
      8         28.717141   0.000000
 
  0.5000000E+00  0.1071429E+00  0.4675411E-14  0.1093294E-02
      1          2.161391   1.000000
      2          4.270559   1.000000
      3         16.240872   0.000000
      4         17.202956   0.000000
      5         19.902864   0.000000
      6         23.151722   0.000000
      7         25.400002   0.000000
      8         28.631418   0.000000
 
 -0.4642857E+00  0.1071429E+00 -0.5437348E-15  0.1093294E-02
      1          2.861578   1.000000
      2          3.503833   1.000000
      3         15.934624   0.000000
      4         17.444930   0.000000
      5         20.152987   0.000000
      6         22.857778   0.000000
      7         25.309488   0.000000
      8         28.662984   0.000000
 
 -0.4285714E+00  0.1071429E+00  0.4975965E-14  0.1093294E-02
      1          2.161409   1.000000
      2          4.270273   1.000000
      3         15.683199   0.000000
      4         17.741773   0.000000
      5         20.478366   0.000000
      6         22.633009   0.000000
      7         25.197052   0.000000
      8         28.811549   0.000000
 
 -0.3928571E+00  0.1071429E+00 -0.1361091E-15  0.1093294E-02
      1          1.282304   1.000000
      2          5.348230   1.000000
      3         15.490613   0.000000
      4         18.089443   0.000000
      5         20.874383   0.000000
      6         22.481661   0.000000
      7         25.079945   0.000000
      8         29.056594   0.000000
 
 -0.3571429E+00  0.1071429E+00 -0.1677428E-14  0.1093294E-02
      1          0.455706   1.000000
      2          6.505658   1.000000
      3         15.359449   0.000000
      4         18.482108   0.000000
      5         21.336917   0.000000
      6         22.408590   0.000000
      7         24.972563   0.000000
      8         29.363859   0.000000
 