       N       E                     dE             d eps       ncg     rms          rms(c)
DAV:   1    -0.240843867962E+01   -0.24084E+01   -0.17814E+03 10688   0.381E+02
DAV:   2    -0.489323330913E+01   -0.24848E+01   -0.23461E+01 15264   0.298E+01
DAV:   3    -0.490721717529E+01   -0.13984E-01   -0.13981E-01 11088   0.237E+00
DAV:   4    -0.490723215183E+01   -0.14977E-04   -0.14977E-04 17080   0.855E-02
DAV:   5    -0.490723215382E+01   -0.19914E-08   -0.24918E-08 11216   0.621E-04    0.767E-01
DAV:   6    -0.489490988573E+01    0.12322E-01   -0.39265E-03 11608   0.274E-01    0.458E-01
DAV:   7    -0.488790196562E+01    0.70079E-02   -0.87442E-03 11600   0.407E-01    0.241E-02
DAV:   8    -0.488788656888E+01    0.15397E-04   -0.36099E-05 14976   0.458E-02    0.453E-03
DAV:   9    -0.488788727597E+01   -0.70709E-06   -0.39739E-07 13208   0.464E-03    0.862E-04
DAV:  10    -0.488788682416E+01    0.45181E-06   -0.55518E-09 14352   0.499E-04    0.185E-04
DAV:  11    -0.488788674567E+01    0.78490E-07   -0.13645E-09  8976   0.180E-04    0.246E-05
DAV:  12    -0.488788675985E+01   -0.14179E-07   -0.33199E-11  7512   0.384E-05    0.154E-06
DAV:  13    -0.488788675939E+01    0.45760E-09   -0.64975E-13  6136   0.632E-06
   1 F= -.48878868E+01 E0= -.48876652E+01  d E =-.488789E+01
       N       E                     dE             d eps       ncg     rms          rms(c)
DAV:   1    -0.489098287721E+01   -0.30961E-02   -0.60925E-02 10560   0.997E-01    0.164E-01
DAV:   2    -0.489032852691E+01    0.65435E-03   -0.39683E-04 14112   0.165E-01    0.962E-02
DAV:   3    -0.488994609782E+01    0.38243E-03   -0.44498E-04 10792   0.903E-02    0.362E-03
DAV:   4    -0.488994617603E+01   -0.78210E-07   -0.10537E-06 14952   0.948E-03    0.199E-03
DAV:   5    -0.488994688957E+01   -0.71354E-06   -0.81817E-08 12000   0.184E-03    0.120E-04
DAV:   6    -0.488994681538E+01    0.74184E-07   -0.10295E-09  9720   0.275E-04    0.405E-05
DAV:   7    -0.488994678850E+01    0.26880E-07   -0.50467E-11  6016   0.433E-05    0.361E-06
DAV:   8    -0.488994678741E+01    0.10931E-08   -0.17221E-12  5664   0.101E-05
   2 F= -.48899468E+01 E0= -.48897104E+01  d E =-.206003E-02
       N       E                     dE             d eps       ncg     rms          rms(c)
DAV:   1    -0.488997163112E+01   -0.24843E-04   -0.52296E-04 10672   0.919E-02    0.152E-02
DAV:   2    -0.488996605415E+01    0.55770E-05   -0.34084E-06 14088   0.152E-02    0.894E-03
DAV:   3    -0.488996296446E+01    0.30897E-05   -0.38232E-06 10848   0.838E-03    0.336E-04
DAV:   4    -0.488996303948E+01   -0.75020E-07   -0.89742E-09 14512   0.875E-04    0.185E-04
DAV:   5    -0.488996313421E+01   -0.94732E-07   -0.70296E-10  5960   0.172E-04    0.108E-05
DAV:   6    -0.488996312838E+01    0.58308E-08   -0.25678E-11  5536   0.409E-05
   3 F= -.48899631E+01 E0= -.48897233E+01  d E =-.207637E-02
