 vasp.6.3.2 27Jun22 (build Dec 02 2024 22:47:12) complex                        
  
 executed on             LinuxIFC date 2024.12.20  11:35:03
 running on    8 total cores
 distrk:  each k-point on    8 cores,    1 groups
 distr:  one band on NCORE=   1 cores,    8 groups


--------------------------------------------------------------------------------------------------------


 INCAR:
   SYSTEM = DFT Groundstate Calculation
   ENCUT = 520
   EDIFF = 1E-8
   ISMEAR = 0
   SIGMA = 0.05
   KSPACING = 0.1
   IBRION = 2
   NSW = 50
   ISIF = 3
   LREAL = Auto

 POTCAR:   PAW_PBE Si 05Jan2001                   
 -----------------------------------------------------------------------------
|                                                                             |
|           W    W    AA    RRRRR   N    N  II  N    N   GGGG   !!!           |
|           W    W   A  A   R    R  NN   N  II  NN   N  G    G  !!!           |
|           W    W  A    A  R    R  N N  N  II  N N  N  G       !!!           |
|           W WW W  AAAAAA  RRRRR   N  N N  II  N  N N  G  GGG   !            |
|           WW  WW  A    A  R   R   N   NN  II  N   NN  G    G                |
|           W    W  A    A  R    R  N    N  II  N    N   GGGG   !!!           |
|                                                                             |
|     For optimal performance we recommend to set                             |
|       NCORE = 2 up to number-of-cores-per-socket                            |
|     NCORE specifies how many cores store one orbital (NPAR=cpu/NCORE).      |
|     This setting can greatly improve the performance of VASP for DFT.       |
|     The default, NCORE=1 might be grossly inefficient on modern             |
|     multi-core architectures or massively parallel machines. Do your        |
|     own testing! More info at https://www.vasp.at/wiki/index.php/NCORE      |
|     Unfortunately you need to use the default for GW and RPA                |
|     calculations (for HF NCORE is supported but not extensively tested      |
|     yet).                                                                   |
|                                                                             |
 -----------------------------------------------------------------------------

 POTCAR:   PAW_PBE Si 05Jan2001                   
   VRHFIN =Si: s2p2                                                                                 
   LEXCH  = PE                                                                                      
   EATOM  =   103.0669 eV,    7.5752 Ry                                                             
                                                                                                    
   TITEL  = PAW_PBE Si 05Jan2001                                                                    
   LULTRA =        F    use ultrasoft PP ?                                                          
   IUNSCR =        1    unscreen: 0-lin 1-nonlin 2-no                                               
   RPACOR =    1.500    partial core radius                                                         
   POMASS =   28.085; ZVAL   =    4.000    mass and valenz                                          
   RCORE  =    1.900    outmost cutoff radius                                                       
   RWIGS  =    2.480; RWIGS  =    1.312    wigner-seitz radius (au A)                               
   ENMAX  =  245.345; ENMIN  =  184.009 eV                                                          
   ICORE  =        2    local potential                                                             
   LCOR   =        T    correct aug charges                                                         
   LPAW   =        T    paw PP                                                                      
   EAUG   =  322.069                                                                                
   DEXC   =    -.007                                                                                
   RMAX   =    2.944    core radius for proj-oper                                                   
   RAUG   =    1.300    factor for augmentation sphere                                              
   RDEP   =    1.993    radius for radial grids                                                     
   QCUT   =   -4.246; QGAM   =    8.493    optimization parameters                                  
                                                                                                    
   Description                                                                                      
     l     E      TYP  RCUT    TYP  RCUT                                                            
     0   .000     23  1.900                                                                         
     0   .000     23  1.900                                                                         
     1   .000     23  1.900                                                                         
     1   .000     23  1.900                                                                         
     2   .000      7  1.900                                                                         
  local pseudopotential read in
  partial core-charges read in
  atomic valenz-charges read in
  non local Contribution for L=           0  read in
    real space projection operators read in
  non local Contribution for L=           0  read in
    real space projection operators read in
  non local Contribution for L=           1  read in
    real space projection operators read in
  non local Contribution for L=           1  read in
    real space projection operators read in
    PAW grid and wavefunctions read in
 
   number of l-projection  operators is LMAX  =           4
   number of lm-projection operators is LMMAX =           8
 
 -----------------------------------------------------------------------------
|                                                                             |
|               ----> ADVICE to this user running VASP <----                  |
|                                                                             |
|     You have a (more or less) 'small supercell' and for smaller cells       |
|     it is recommended to use the reciprocal-space projection scheme!        |
|     The real-space optimization is not efficient for small cells and it     |
|     is also less accurate ...                                               |
|     Therefore, set LREAL=.FALSE. in the INCAR file.                         |
|                                                                             |
 -----------------------------------------------------------------------------

 Optimization of the real space projectors (new method)

 maximal supplied QI-value         = 19.84
 optimisation between [QCUT,QGAM] = [ 11.51, 23.22] = [ 37.09,150.92] Ry 
 Optimized for a Real-space Cutoff    1.08 Angstroem

   l    n(q)    QCUT    max X(q) W(low)/X(q) W(high)/X(q)  e(spline) 
   0      7    11.508     8.708    0.43E-04    0.15E-04    0.69E-08
   0      7    11.508   106.241    0.42E-03    0.41E-03    0.87E-07
   1      7    11.508     5.901    0.37E-04    0.76E-04    0.15E-07
   1      7    11.508    73.241    0.48E-03    0.68E-04    0.67E-07
 PAW_PBE Si 05Jan2001                   :
 energy of atom  1       EATOM= -103.0669
 kinetic energy error for atom=    0.0005 (will be added to EATOM!!)
 
 
 POSCAR: fcc Si:
  positions in cartesian coordinates
  No initial velocities read in
 exchange correlation table for  LEXCH =        8
   RHO(1)=    0.500       N(1)  =     2000
   RHO(2)=  100.500       N(2)  =     4000
 


--------------------------------------------------------------------------------------------------------


 ion  position               nearest neighbor table
   1  0.000  0.000  0.000-
 
  LATTYP: Found a face centered cubic cell.
 ALAT       =     3.9000000000
  
  Lattice vectors:
  
 A1 = (   1.9500000000,   1.9500000000,   0.0000000000)
 A2 = (   0.0000000000,   1.9500000000,   1.9500000000)
 A3 = (   1.9500000000,   0.0000000000,   1.9500000000)


Analysis of symmetry for initial positions (statically):
=====================================================================
 Subroutine PRICEL returns:
 Original cell was already a primitive cell.
 

 Routine SETGRP: Setting up the symmetry group for a 
 face centered cubic supercell.


 Subroutine GETGRP returns: Found 48 space group operations
 (whereof 48 operations were pure point group operations)
 out of a pool of 48 trial point group operations.


The static configuration has the point symmetry O_h .


Analysis of symmetry for dynamics (positions and initial velocities):
=====================================================================
 Subroutine PRICEL returns:
 Original cell was already a primitive cell.
 

 Routine SETGRP: Setting up the symmetry group for a 
 face centered cubic supercell.


 Subroutine GETGRP returns: Found 48 space group operations
 (whereof 48 operations were pure point group operations)
 out of a pool of 48 trial point group operations.


The dynamic configuration has the point symmetry O_h .


 Subroutine INISYM returns: Found 48 space group operations
 (whereof 48 operations are pure point group operations),
 and found     1 'primitive' translations


----------------------------------------------------------------------------------------

                                     Primitive cell                                     

  volume of cell :      14.8297

  direct lattice vectors                    reciprocal lattice vectors
     1.950000000  1.950000000  0.000000000     0.256410256  0.256410256 -0.256410256
     0.000000000  1.950000000  1.950000000    -0.256410256  0.256410256  0.256410256
     1.950000000  0.000000000  1.950000000     0.256410256 -0.256410256  0.256410256

  length of vectors
     2.757716447  2.757716447  2.757716447     0.444115592  0.444115592  0.444115592

  position of ions in fractional coordinates (direct lattice)
     0.000000000  0.000000000  0.000000000

  ion indices of the primitive-cell ions
   primitive index   ion index
                 1           1

----------------------------------------------------------------------------------------

 
 -----------------------------------------------------------------------------
|                                                                             |
|           W    W    AA    RRRRR   N    N  II  N    N   GGGG   !!!           |
|           W    W   A  A   R    R  NN   N  II  NN   N  G    G  !!!           |
|           W    W  A    A  R    R  N N  N  II  N N  N  G       !!!           |
|           W WW W  AAAAAA  RRRRR   N  N N  II  N  N N  G  GGG   !            |
|           WW  WW  A    A  R   R   N   NN  II  N   NN  G    G                |
|           W    W  A    A  R    R  N    N  II  N    N   GGGG   !!!           |
|                                                                             |
|     The requested file  could not be found or opened for reading            |
|     k-point information. Automatic k-point generation is used as a          |
|     fallback, which may lead to unwanted results.                           |
|                                                                             |
 -----------------------------------------------------------------------------

 

Automatic generation of k-mesh.
 Grid dimensions derived from KSPACING:
 generate k-points for:   28   28   28

 Generating k-lattice:

  Cartesian coordinates                     Fractional coordinates (reciprocal lattice)
     0.009157509  0.009157509 -0.009157509     0.035714286 -0.000000000 -0.000000000
    -0.009157509  0.009157509  0.009157509    -0.000000000  0.035714286  0.000000000
     0.009157509 -0.009157509  0.009157509     0.000000000  0.000000000  0.035714286

  Length of vectors
     0.015861271  0.015861271  0.015861271

  Shift w.r.t. Gamma in fractional coordinates (k-lattice)
     0.000000000  0.000000000  0.000000000

 
 Subroutine IBZKPT returns following result:
 ===========================================
 
 Found    624 irreducible k-points:
 
 Following reciprocal coordinates:
            Coordinates               Weight
  0.000000  0.000000  0.000000      1.000000
  0.035714  0.000000 -0.000000      8.000000
  0.071429 -0.000000  0.000000      8.000000
  0.107143 -0.000000 -0.000000      8.000000
  0.142857  0.000000  0.000000      8.000000
  0.178571 -0.000000 -0.000000      8.000000
  0.214286  0.000000  0.000000      8.000000
  0.250000 -0.000000  0.000000      8.000000
  0.285714  0.000000 -0.000000      8.000000
  0.321429  0.000000  0.000000      8.000000
  0.357143 -0.000000 -0.000000      8.000000
  0.392857  0.000000  0.000000      8.000000
  0.428571  0.000000 -0.000000      8.000000
  0.464286  0.000000  0.000000      8.000000
  0.500000 -0.000000  0.000000      4.000000
  0.035714  0.035714  0.000000      6.000000
  0.071429  0.035714 -0.000000     24.000000
  0.107143  0.035714  0.000000     24.000000
  0.142857  0.035714 -0.000000     24.000000
  0.178571  0.035714  0.000000     24.000000
  0.214286  0.035714 -0.000000     24.000000
  0.250000  0.035714  0.000000     24.000000
  0.285714  0.035714  0.000000     24.000000
  0.321429  0.035714 -0.000000     24.000000
  0.357143  0.035714  0.000000     24.000000
  0.392857  0.035714 -0.000000     24.000000
  0.428571  0.035714  0.000000     24.000000
  0.464286  0.035714 -0.000000     24.000000
  0.500000  0.035714  0.000000     24.000000
 -0.464286  0.035714 -0.000000     24.000000
 -0.428571  0.035714 -0.000000     24.000000
 -0.392857  0.035714  0.000000     24.000000
 -0.357143  0.035714 -0.000000     24.000000
 -0.321429  0.035714  0.000000     24.000000
 -0.285714  0.035714 -0.000000     24.000000
 -0.250000  0.035714  0.000000     24.000000
 -0.214286  0.035714 -0.000000     24.000000
 -0.178571  0.035714 -0.000000     24.000000
 -0.142857  0.035714  0.000000     24.000000
 -0.107143  0.035714 -0.000000     24.000000
 -0.071429  0.035714  0.000000     24.000000
 -0.035714  0.035714 -0.000000     12.000000
  0.071429  0.071429  0.000000      6.000000
  0.107143  0.071429 -0.000000     24.000000
  0.142857  0.071429  0.000000     24.000000
  0.178571  0.071429 -0.000000     24.000000
  0.214286  0.071429  0.000000     24.000000
  0.250000  0.071429 -0.000000     24.000000
  0.285714  0.071429  0.000000     24.000000
  0.321429  0.071429  0.000000     24.000000
  0.357143  0.071429 -0.000000     24.000000
  0.392857  0.071429  0.000000     24.000000
  0.428571  0.071429 -0.000000     24.000000
  0.464286  0.071429  0.000000     24.000000
  0.500000  0.071429 -0.000000     24.000000
 -0.464286  0.071429  0.000000     24.000000
 -0.428571  0.071429 -0.000000     24.000000
 -0.392857  0.071429 -0.000000     24.000000
 -0.357143  0.071429  0.000000     24.000000
 -0.321429  0.071429 -0.000000     24.000000
 -0.285714  0.071429  0.000000     24.000000
 -0.250000  0.071429 -0.000000     24.000000
 -0.214286  0.071429  0.000000     24.000000
 -0.178571  0.071429 -0.000000     24.000000
 -0.142857  0.071429 -0.000000     24.000000
 -0.107143  0.071429  0.000000     24.000000
 -0.071429  0.071429 -0.000000     12.000000
  0.107143  0.107143  0.000000      6.000000
  0.142857  0.107143 -0.000000     24.000000
  0.178571  0.107143  0.000000     24.000000
  0.214286  0.107143 -0.000000     24.000000
  0.250000  0.107143  0.000000     24.000000
  0.285714  0.107143 -0.000000     24.000000
  0.321429  0.107143  0.000000     24.000000
  0.357143  0.107143  0.000000     24.000000
  0.392857  0.107143 -0.000000     24.000000
  0.428571  0.107143  0.000000     24.000000
  0.464286  0.107143 -0.000000     24.000000
  0.500000  0.107143  0.000000     24.000000
 -0.464286  0.107143 -0.000000     24.000000
 -0.428571  0.107143  0.000000     24.000000
 -0.392857  0.107143 -0.000000     24.000000
 -0.357143  0.107143 -0.000000     24.000000
 -0.321429  0.107143  0.000000     24.000000
 -0.285714  0.107143 -0.000000     24.000000
 -0.250000  0.107143  0.000000     24.000000
 -0.214286  0.107143 -0.000000     24.000000
 -0.178571  0.107143  0.000000     24.000000
 -0.142857  0.107143 -0.000000     24.000000
 -0.107143  0.107143 -0.000000     12.000000
  0.142857  0.142857  0.000000      6.000000
  0.178571  0.142857 -0.000000     24.000000
  0.214286  0.142857  0.000000     24.000000
  0.250000  0.142857 -0.000000     24.000000
  0.285714  0.142857  0.000000     24.000000
  0.321429  0.142857 -0.000000     24.000000
  0.357143  0.142857  0.000000     24.000000
  0.392857  0.142857  0.000000     24.000000
  0.428571  0.142857 -0.000000     24.000000
  0.464286  0.142857  0.000000     24.000000
  0.500000  0.142857 -0.000000     24.000000
 -0.464286  0.142857  0.000000     24.000000
 -0.428571  0.142857 -0.000000     24.000000
 -0.392857  0.142857  0.000000     24.000000
 -0.357143  0.142857 -0.000000     24.000000
 -0.321429  0.142857 -0.000000     24.000000
 -0.285714  0.142857  0.000000     24.000000
 -0.250000  0.142857 -0.000000     24.000000
 -0.214286  0.142857  0.000000     24.000000
 -0.178571  0.142857 -0.000000     24.000000
 -0.142857  0.142857  0.000000     12.000000
  0.178571  0.178571  0.000000      6.000000
  0.214286  0.178571 -0.000000     24.000000
  0.250000  0.178571  0.000000     24.000000
  0.285714  0.178571 -0.000000     24.000000
  0.321429  0.178571  0.000000     24.000000
  0.357143  0.178571 -0.000000     24.000000
  0.392857  0.178571  0.000000     24.000000
  0.428571  0.178571  0.000000     24.000000
  0.464286  0.178571 -0.000000     24.000000
  0.500000  0.178571  0.000000     24.000000
 -0.464286  0.178571 -0.000000     24.000000
 -0.428571  0.178571  0.000000     24.000000
 -0.392857  0.178571 -0.000000     24.000000
 -0.357143  0.178571  0.000000     24.000000
 -0.321429  0.178571 -0.000000     24.000000
 -0.285714  0.178571 -0.000000     24.000000
 -0.250000  0.178571  0.000000     24.000000
 -0.214286  0.178571 -0.000000     24.000000
 -0.178571  0.178571  0.000000     12.000000
  0.214286  0.214286  0.000000      6.000000
  0.250000  0.214286 -0.000000     24.000000
  0.285714  0.214286  0.000000     24.000000
  0.321429  0.214286 -0.000000     24.000000
  0.357143  0.214286  0.000000     24.000000
  0.392857  0.214286 -0.000000     24.000000
  0.428571  0.214286  0.000000     24.000000
  0.464286  0.214286  0.000000     24.000000
  0.500000  0.214286 -0.000000     24.000000
 -0.464286  0.214286  0.000000     24.000000
 -0.428571  0.214286 -0.000000     24.000000
 -0.392857  0.214286  0.000000     24.000000
 -0.357143  0.214286 -0.000000     24.000000
 -0.321429  0.214286  0.000000     24.000000
 -0.285714  0.214286 -0.000000     24.000000
 -0.250000  0.214286 -0.000000     24.000000
 -0.214286  0.214286  0.000000     12.000000
  0.250000  0.250000  0.000000      6.000000
  0.285714  0.250000 -0.000000     24.000000
  0.321429  0.250000  0.000000     24.000000
  0.357143  0.250000 -0.000000     24.000000
  0.392857  0.250000  0.000000     24.000000
  0.428571  0.250000 -0.000000     24.000000
  0.464286  0.250000  0.000000     24.000000
  0.500000  0.250000  0.000000     24.000000
 -0.464286  0.250000 -0.000000     24.000000
 -0.428571  0.250000  0.000000     24.000000
 -0.392857  0.250000 -0.000000     24.000000
 -0.357143  0.250000  0.000000     24.000000
 -0.321429  0.250000 -0.000000     24.000000
 -0.285714  0.250000  0.000000     24.000000
 -0.250000  0.250000 -0.000000     12.000000
  0.285714  0.285714  0.000000      6.000000
  0.321429  0.285714 -0.000000     24.000000
  0.357143  0.285714  0.000000     24.000000
  0.392857  0.285714 -0.000000     24.000000
  0.428571  0.285714  0.000000     24.000000
  0.464286  0.285714 -0.000000     24.000000
  0.500000  0.285714  0.000000     24.000000
 -0.464286  0.285714 -0.000000     24.000000
 -0.428571  0.285714 -0.000000     24.000000
 -0.392857  0.285714  0.000000     24.000000
 -0.357143  0.285714 -0.000000     24.000000
 -0.321429  0.285714  0.000000     24.000000
 -0.285714  0.285714 -0.000000     12.000000
  0.321429  0.321429  0.000000      6.000000
  0.357143  0.321429 -0.000000     24.000000
  0.392857  0.321429  0.000000     24.000000
  0.428571  0.321429 -0.000000     24.000000
  0.464286  0.321429  0.000000     24.000000
  0.500000  0.321429 -0.000000     24.000000
 -0.464286  0.321429  0.000000     24.000000
 -0.428571  0.321429 -0.000000     24.000000
 -0.392857  0.321429 -0.000000     24.000000
 -0.357143  0.321429  0.000000     24.000000
 -0.321429  0.321429 -0.000000     12.000000
  0.357143  0.357143  0.000000      6.000000
  0.392857  0.357143 -0.000000     24.000000
  0.428571  0.357143  0.000000     24.000000
  0.464286  0.357143 -0.000000     24.000000
  0.500000  0.357143  0.000000     24.000000
 -0.464286  0.357143 -0.000000     24.000000
 -0.428571  0.357143  0.000000     24.000000
 -0.392857  0.357143 -0.000000     24.000000
 -0.357143  0.357143 -0.000000     12.000000
  0.392857  0.392857  0.000000      6.000000
  0.428571  0.392857 -0.000000     24.000000
  0.464286  0.392857  0.000000     24.000000
  0.500000  0.392857 -0.000000     24.000000
 -0.464286  0.392857  0.000000     24.000000
 -0.428571  0.392857 -0.000000     24.000000
 -0.392857  0.392857  0.000000     12.000000
  0.428571  0.428571  0.000000      6.000000
  0.464286  0.428571 -0.000000     24.000000
  0.500000  0.428571  0.000000     24.000000
 -0.464286  0.428571 -0.000000     24.000000
 -0.428571  0.428571  0.000000     12.000000
  0.464286  0.464286  0.000000      6.000000
  0.500000  0.464286 -0.000000     24.000000
 -0.464286  0.464286  0.000000     12.000000
  0.500000  0.500000  0.000000      3.000000
  0.107143  0.071429  0.035714     24.000000
  0.142857  0.071429  0.035714     48.000000
  0.178571  0.071429  0.035714     48.000000
  0.214286  0.071429  0.035714     48.000000
  0.250000  0.071429  0.035714     48.000000
  0.285714  0.071429  0.035714     48.000000
  0.321429  0.071429  0.035714     48.000000
  0.357143  0.071429  0.035714     48.000000
  0.392857  0.071429  0.035714     48.000000
  0.428571  0.071429  0.035714     48.000000
  0.464286  0.071429  0.035714     48.000000
  0.500000  0.071429  0.035714     48.000000
 -0.464286  0.071429  0.035714     24.000000
  0.142857  0.107143  0.035714     24.000000
  0.178571  0.107143  0.035714     48.000000
  0.214286  0.107143  0.035714     48.000000
  0.250000  0.107143  0.035714     48.000000
  0.285714  0.107143  0.035714     48.000000
  0.321429  0.107143  0.035714     48.000000
  0.357143  0.107143  0.035714     48.000000
  0.392857  0.107143  0.035714     48.000000
  0.428571  0.107143  0.035714     48.000000
  0.464286  0.107143  0.035714     48.000000
  0.500000  0.107143  0.035714     48.000000
 -0.464286  0.107143  0.035714     48.000000
 -0.428571  0.107143  0.035714     48.000000
 -0.392857  0.107143  0.035714     48.000000
 -0.357143  0.107143  0.035714     48.000000
 -0.321429  0.107143  0.035714     48.000000
 -0.285714  0.107143  0.035714     48.000000
 -0.250000  0.107143  0.035714     48.000000
 -0.214286  0.107143  0.035714     48.000000
 -0.178571  0.107143  0.035714     48.000000
 -0.142857  0.107143  0.035714     48.000000
 -0.107143  0.107143  0.035714     48.000000
 -0.071429  0.107143  0.035714     24.000000
  0.178571  0.142857  0.035714     24.000000
  0.214286  0.142857  0.035714     48.000000
  0.250000  0.142857  0.035714     48.000000
  0.285714  0.142857  0.035714     48.000000
  0.321429  0.142857  0.035714     48.000000
  0.357143  0.142857  0.035714     48.000000
  0.392857  0.142857  0.035714     48.000000
  0.428571  0.142857  0.035714     48.000000
  0.464286  0.142857  0.035714     48.000000
  0.500000  0.142857  0.035714     48.000000
 -0.464286  0.142857  0.035714     48.000000
 -0.428571  0.142857  0.035714     48.000000
 -0.392857  0.142857  0.035714     48.000000
 -0.357143  0.142857  0.035714     48.000000
 -0.321429  0.142857  0.035714     48.000000
 -0.285714  0.142857  0.035714     48.000000
 -0.250000  0.142857  0.035714     48.000000
 -0.214286  0.142857  0.035714     48.000000
 -0.178571  0.142857  0.035714     48.000000
 -0.142857  0.142857  0.035714     48.000000
 -0.107143  0.142857  0.035714     24.000000
  0.214286  0.178571  0.035714     24.000000
  0.250000  0.178571  0.035714     48.000000
  0.285714  0.178571  0.035714     48.000000
  0.321429  0.178571  0.035714     48.000000
  0.357143  0.178571  0.035714     48.000000
  0.392857  0.178571  0.035714     48.000000
  0.428571  0.178571  0.035714     48.000000
  0.464286  0.178571  0.035714     48.000000
  0.500000  0.178571  0.035714     48.000000
 -0.464286  0.178571  0.035714     48.000000
 -0.428571  0.178571  0.035714     48.000000
 -0.392857  0.178571  0.035714     48.000000
 -0.357143  0.178571  0.035714     48.000000
 -0.321429  0.178571  0.035714     48.000000
 -0.285714  0.178571  0.035714     48.000000
 -0.250000  0.178571  0.035714     48.000000
 -0.214286  0.178571  0.035714     48.000000
 -0.178571  0.178571  0.035714     48.000000
 -0.142857  0.178571  0.035714     24.000000
  0.250000  0.214286  0.035714     24.000000
  0.285714  0.214286  0.035714     48.000000
  0.321429  0.214286  0.035714     48.000000
  0.357143  0.214286  0.035714     48.000000
  0.392857  0.214286  0.035714     48.000000
  0.428571  0.214286  0.035714     48.000000
  0.464286  0.214286  0.035714     48.000000
  0.500000  0.214286  0.035714     48.000000
 -0.464286  0.214286  0.035714     48.000000
 -0.428571  0.214286  0.035714     48.000000
 -0.392857  0.214286  0.035714     48.000000
 -0.357143  0.214286  0.035714     48.000000
 -0.321429  0.214286  0.035714     48.000000
 -0.285714  0.214286  0.035714     48.000000
 -0.250000  0.214286  0.035714     48.000000
 -0.214286  0.214286  0.035714     48.000000
 -0.178571  0.214286  0.035714     24.000000
  0.285714  0.250000  0.035714     24.000000
  0.321429  0.250000  0.035714     48.000000
  0.357143  0.250000  0.035714     48.000000
  0.392857  0.250000  0.035714     48.000000
  0.428571  0.250000  0.035714     48.000000
  0.464286  0.250000  0.035714     48.000000
  0.500000  0.250000  0.035714     48.000000
 -0.464286  0.250000  0.035714     48.000000
 -0.428571  0.250000  0.035714     48.000000
 -0.392857  0.250000  0.035714     48.000000
 -0.357143  0.250000  0.035714     48.000000
 -0.321429  0.250000  0.035714     48.000000
 -0.285714  0.250000  0.035714     48.000000
 -0.250000  0.250000  0.035714     48.000000
 -0.214286  0.250000  0.035714     24.000000
  0.321429  0.285714  0.035714     24.000000
  0.357143  0.285714  0.035714     48.000000
  0.392857  0.285714  0.035714     48.000000
  0.428571  0.285714  0.035714     48.000000
  0.464286  0.285714  0.035714     48.000000
  0.500000  0.285714  0.035714     48.000000
 -0.464286  0.285714  0.035714     48.000000
 -0.428571  0.285714  0.035714     48.000000
 -0.392857  0.285714  0.035714     48.000000
 -0.357143  0.285714  0.035714     48.000000
 -0.321429  0.285714  0.035714     48.000000
 -0.285714  0.285714  0.035714     48.000000
 -0.250000  0.285714  0.035714     24.000000
  0.357143  0.321429  0.035714     24.000000
  0.392857  0.321429  0.035714     48.000000
  0.428571  0.321429  0.035714     48.000000
  0.464286  0.321429  0.035714     48.000000
  0.500000  0.321429  0.035714     48.000000
 -0.464286  0.321429  0.035714     48.000000
 -0.428571  0.321429  0.035714     48.000000
 -0.392857  0.321429  0.035714     48.000000
 -0.357143  0.321429  0.035714     48.000000
 -0.321429  0.321429  0.035714     48.000000
 -0.285714  0.321429  0.035714     24.000000
  0.392857  0.357143  0.035714     24.000000
  0.428571  0.357143  0.035714     48.000000
  0.464286  0.357143  0.035714     48.000000
  0.500000  0.357143  0.035714     48.000000
 -0.464286  0.357143  0.035714     48.000000
 -0.428571  0.357143  0.035714     48.000000
 -0.392857  0.357143  0.035714     48.000000
 -0.357143  0.357143  0.035714     48.000000
 -0.321429  0.357143  0.035714     24.000000
  0.428571  0.392857  0.035714     24.000000
  0.464286  0.392857  0.035714     48.000000
  0.500000  0.392857  0.035714     48.000000
 -0.464286  0.392857  0.035714     48.000000
 -0.428571  0.392857  0.035714     48.000000
 -0.392857  0.392857  0.035714     48.000000
 -0.357143  0.392857  0.035714     24.000000
  0.464286  0.428571  0.035714     24.000000
  0.500000  0.428571  0.035714     48.000000
 -0.464286  0.428571  0.035714     48.000000
 -0.428571  0.428571  0.035714     48.000000
 -0.392857  0.428571  0.035714     24.000000
  0.500000  0.464286  0.035714     24.000000
 -0.464286  0.464286  0.035714     48.000000
 -0.428571  0.464286  0.035714     24.000000
 -0.464286  0.500000  0.035714     12.000000
  0.214286  0.142857  0.071429     24.000000
  0.250000  0.142857  0.071429     48.000000
  0.285714  0.142857  0.071429     48.000000
  0.321429  0.142857  0.071429     48.000000
  0.357143  0.142857  0.071429     48.000000
  0.392857  0.142857  0.071429     48.000000
  0.428571  0.142857  0.071429     48.000000
  0.464286  0.142857  0.071429     48.000000
  0.500000  0.142857  0.071429     48.000000
 -0.464286  0.142857  0.071429     48.000000
 -0.428571  0.142857  0.071429     24.000000
  0.250000  0.178571  0.071429     24.000000
  0.285714  0.178571  0.071429     48.000000
  0.321429  0.178571  0.071429     48.000000
  0.357143  0.178571  0.071429     48.000000
  0.392857  0.178571  0.071429     48.000000
  0.428571  0.178571  0.071429     48.000000
  0.464286  0.178571  0.071429     48.000000
  0.500000  0.178571  0.071429     48.000000
 -0.464286  0.178571  0.071429     48.000000
 -0.428571  0.178571  0.071429     48.000000
 -0.392857  0.178571  0.071429     48.000000
 -0.357143  0.178571  0.071429     48.000000
 -0.321429  0.178571  0.071429     48.000000
 -0.285714  0.178571  0.071429     48.000000
 -0.250000  0.178571  0.071429     48.000000
 -0.214286  0.178571  0.071429     48.000000
 -0.178571  0.178571  0.071429     48.000000
 -0.142857  0.178571  0.071429     48.000000
 -0.107143  0.178571  0.071429     24.000000
  0.285714  0.214286  0.071429     24.000000
  0.321429  0.214286  0.071429     48.000000
  0.357143  0.214286  0.071429     48.000000
  0.392857  0.214286  0.071429     48.000000
  0.428571  0.214286  0.071429     48.000000
  0.464286  0.214286  0.071429     48.000000
  0.500000  0.214286  0.071429     48.000000
 -0.464286  0.214286  0.071429     48.000000
 -0.428571  0.214286  0.071429     48.000000
 -0.392857  0.214286  0.071429     48.000000
 -0.357143  0.214286  0.071429     48.000000
 -0.321429  0.214286  0.071429     48.000000
 -0.285714  0.214286  0.071429     48.000000
 -0.250000  0.214286  0.071429     48.000000
 -0.214286  0.214286  0.071429     48.000000
 -0.178571  0.214286  0.071429     48.000000
 -0.142857  0.214286  0.071429     24.000000
  0.321429  0.250000  0.071429     24.000000
  0.357143  0.250000  0.071429     48.000000
  0.392857  0.250000  0.071429     48.000000
  0.428571  0.250000  0.071429     48.000000
  0.464286  0.250000  0.071429     48.000000
  0.500000  0.250000  0.071429     48.000000
 -0.464286  0.250000  0.071429     48.000000
 -0.428571  0.250000  0.071429     48.000000
 -0.392857  0.250000  0.071429     48.000000
 -0.357143  0.250000  0.071429     48.000000
 -0.321429  0.250000  0.071429     48.000000
 -0.285714  0.250000  0.071429     48.000000
 -0.250000  0.250000  0.071429     48.000000
 -0.214286  0.250000  0.071429     48.000000
 -0.178571  0.250000  0.071429     24.000000
  0.357143  0.285714  0.071429     24.000000
  0.392857  0.285714  0.071429     48.000000
  0.428571  0.285714  0.071429     48.000000
  0.464286  0.285714  0.071429     48.000000
  0.500000  0.285714  0.071429     48.000000
 -0.464286  0.285714  0.071429     48.000000
 -0.428571  0.285714  0.071429     48.000000
 -0.392857  0.285714  0.071429     48.000000
 -0.357143  0.285714  0.071429     48.000000
 -0.321429  0.285714  0.071429     48.000000
 -0.285714  0.285714  0.071429     48.000000
 -0.250000  0.285714  0.071429     48.000000
 -0.214286  0.285714  0.071429     24.000000
  0.392857  0.321429  0.071429     24.000000
  0.428571  0.321429  0.071429     48.000000
  0.464286  0.321429  0.071429     48.000000
  0.500000  0.321429  0.071429     48.000000
 -0.464286  0.321429  0.071429     48.000000
 -0.428571  0.321429  0.071429     48.000000
 -0.392857  0.321429  0.071429     48.000000
 -0.357143  0.321429  0.071429     48.000000
 -0.321429  0.321429  0.071429     48.000000
 -0.285714  0.321429  0.071429     48.000000
 -0.250000  0.321429  0.071429     24.000000
  0.428571  0.357143  0.071429     24.000000
  0.464286  0.357143  0.071429     48.000000
  0.500000  0.357143  0.071429     48.000000
 -0.464286  0.357143  0.071429     48.000000
 -0.428571  0.357143  0.071429     48.000000
 -0.392857  0.357143  0.071429     48.000000
 -0.357143  0.357143  0.071429     48.000000
 -0.321429  0.357143  0.071429     48.000000
 -0.285714  0.357143  0.071429     24.000000
  0.464286  0.392857  0.071429     24.000000
  0.500000  0.392857  0.071429     48.000000
 -0.464286  0.392857  0.071429     48.000000
 -0.428571  0.392857  0.071429     48.000000
 -0.392857  0.392857  0.071429     48.000000
 -0.357143  0.392857  0.071429     48.000000
 -0.321429  0.392857  0.071429     24.000000
  0.500000  0.428571  0.071429     24.000000
 -0.464286  0.428571  0.071429     48.000000
 -0.428571  0.428571  0.071429     48.000000
 -0.392857  0.428571  0.071429     48.000000
 -0.357143  0.428571  0.071429     24.000000
 -0.464286  0.464286  0.071429     24.000000
 -0.428571  0.464286  0.071429     48.000000
 -0.392857  0.464286  0.071429     24.000000
 -0.428571  0.500000  0.071429     12.000000
  0.321429  0.214286  0.107143     24.000000
  0.357143  0.214286  0.107143     48.000000
  0.392857  0.214286  0.107143     48.000000
  0.428571  0.214286  0.107143     48.000000
  0.464286  0.214286  0.107143     48.000000
  0.500000  0.214286  0.107143     48.000000
 -0.464286  0.214286  0.107143     48.000000
 -0.428571  0.214286  0.107143     48.000000
 -0.392857  0.214286  0.107143     24.000000
  0.357143  0.250000  0.107143     24.000000
  0.392857  0.250000  0.107143     48.000000
  0.428571  0.250000  0.107143     48.000000
  0.464286  0.250000  0.107143     48.000000
  0.500000  0.250000  0.107143     48.000000
 -0.464286  0.250000  0.107143     48.000000
 -0.428571  0.250000  0.107143     48.000000
 -0.392857  0.250000  0.107143     48.000000
 -0.357143  0.250000  0.107143     48.000000
 -0.321429  0.250000  0.107143     48.000000
 -0.285714  0.250000  0.107143     48.000000
 -0.250000  0.250000  0.107143     48.000000
 -0.214286  0.250000  0.107143     48.000000
 -0.178571  0.250000  0.107143     48.000000
 -0.142857  0.250000  0.107143     24.000000
  0.392857  0.285714  0.107143     24.000000
  0.428571  0.285714  0.107143     48.000000
  0.464286  0.285714  0.107143     48.000000
  0.500000  0.285714  0.107143     48.000000
 -0.464286  0.285714  0.107143     48.000000
 -0.428571  0.285714  0.107143     48.000000
 -0.392857  0.285714  0.107143     48.000000
 -0.357143  0.285714  0.107143     48.000000
 -0.321429  0.285714  0.107143     48.000000
 -0.285714  0.285714  0.107143     48.000000
 -0.250000  0.285714  0.107143     48.000000
 -0.214286  0.285714  0.107143     48.000000
 -0.178571  0.285714  0.107143     24.000000
  0.428571  0.321429  0.107143     24.000000
  0.464286  0.321429  0.107143     48.000000
  0.500000  0.321429  0.107143     48.000000
 -0.464286  0.321429  0.107143     48.000000
 -0.428571  0.321429  0.107143     48.000000
 -0.392857  0.321429  0.107143     48.000000
 -0.357143  0.321429  0.107143     48.000000
 -0.321429  0.321429  0.107143     48.000000
 -0.285714  0.321429  0.107143     48.000000
 -0.250000  0.321429  0.107143     48.000000
 -0.214286  0.321429  0.107143     24.000000
  0.464286  0.357143  0.107143     24.000000
  0.500000  0.357143  0.107143     48.000000
 -0.464286  0.357143  0.107143     48.000000
 -0.428571  0.357143  0.107143     48.000000
 -0.392857  0.357143  0.107143     48.000000
 -0.357143  0.357143  0.107143     48.000000
 -0.321429  0.357143  0.107143     48.000000
 -0.285714  0.357143  0.107143     48.000000
 -0.250000  0.357143  0.107143     24.000000
  0.500000  0.392857  0.107143     24.000000
 -0.464286  0.392857  0.107143     48.000000
 -0.428571  0.392857  0.107143     48.000000
 -0.392857  0.392857  0.107143     48.000000
 -0.357143  0.392857  0.107143     48.000000
 -0.321429  0.392857  0.107143     48.000000
 -0.285714  0.392857  0.107143     24.000000
 -0.464286  0.428571  0.107143     24.000000
 -0.428571  0.428571  0.107143     48.000000
 -0.392857  0.428571  0.107143     48.000000
 -0.357143  0.428571  0.107143     48.000000
 -0.321429  0.428571  0.107143     24.000000
 -0.428571  0.464286  0.107143     24.000000
 -0.392857  0.464286  0.107143     48.000000
 -0.357143  0.464286  0.107143     24.000000
 -0.392857  0.500000  0.107143     12.000000
  0.428571  0.285714  0.142857     24.000000
  0.464286  0.285714  0.142857     48.000000
  0.500000  0.285714  0.142857     48.000000
 -0.464286  0.285714  0.142857     48.000000
 -0.428571  0.285714  0.142857     48.000000
 -0.392857  0.285714  0.142857     48.000000
 -0.357143  0.285714  0.142857     24.000000
  0.464286  0.321429  0.142857     24.000000
  0.500000  0.321429  0.142857     48.000000
 -0.464286  0.321429  0.142857     48.000000
 -0.428571  0.321429  0.142857     48.000000
 -0.392857  0.321429  0.142857     48.000000
 -0.357143  0.321429  0.142857     48.000000
 -0.321429  0.321429  0.142857     48.000000
 -0.285714  0.321429  0.142857     48.000000
 -0.250000  0.321429  0.142857     48.000000
 -0.214286  0.321429  0.142857     48.000000
 -0.178571  0.321429  0.142857     24.000000
  0.500000  0.357143  0.142857     24.000000
 -0.464286  0.357143  0.142857     48.000000
 -0.428571  0.357143  0.142857     48.000000
 -0.392857  0.357143  0.142857     48.000000
 -0.357143  0.357143  0.142857     48.000000
 -0.321429  0.357143  0.142857     48.000000
 -0.285714  0.357143  0.142857     48.000000
 -0.250000  0.357143  0.142857     48.000000
 -0.214286  0.357143  0.142857     24.000000
 -0.464286  0.392857  0.142857     24.000000
 -0.428571  0.392857  0.142857     48.000000
 -0.392857  0.392857  0.142857     48.000000
 -0.357143  0.392857  0.142857     48.000000
 -0.321429  0.392857  0.142857     48.000000
 -0.285714  0.392857  0.142857     48.000000
 -0.250000  0.392857  0.142857     24.000000
 -0.428571  0.428571  0.142857     24.000000
 -0.392857  0.428571  0.142857     48.000000
 -0.357143  0.428571  0.142857     48.000000
 -0.321429  0.428571  0.142857     48.000000
 -0.285714  0.428571  0.142857     24.000000
 -0.392857  0.464286  0.142857     24.000000
 -0.357143  0.464286  0.142857     48.000000
 -0.321429  0.464286  0.142857     24.000000
 -0.357143  0.500000  0.142857     12.000000
 -0.464286  0.357143  0.178571     24.000000
 -0.428571  0.357143  0.178571     48.000000
 -0.392857  0.357143  0.178571     48.000000
 -0.357143  0.357143  0.178571     48.000000
 -0.321429  0.357143  0.178571     24.000000
 -0.428571  0.392857  0.178571     24.000000
 -0.392857  0.392857  0.178571     48.000000
 -0.357143  0.392857  0.178571     48.000000
 -0.321429  0.392857  0.178571     48.000000
 -0.285714  0.392857  0.178571     48.000000
 -0.250000  0.392857  0.178571     48.000000
 -0.214286  0.392857  0.178571     24.000000
 -0.392857  0.428571  0.178571     24.000000
 -0.357143  0.428571  0.178571     48.000000
 -0.321429  0.428571  0.178571     48.000000
 -0.285714  0.428571  0.178571     48.000000
 -0.250000  0.428571  0.178571     24.000000
 -0.357143  0.464286  0.178571     24.000000
 -0.321429  0.464286  0.178571     48.000000
 -0.285714  0.464286  0.178571     24.000000
 -0.321429  0.500000  0.178571     12.000000
 -0.357143  0.428571  0.214286     24.000000
 -0.321429  0.428571  0.214286     48.000000
 -0.285714  0.428571  0.214286     24.000000
 -0.321429  0.464286  0.214286     24.000000
 -0.285714  0.464286  0.214286     48.000000
 -0.250000  0.464286  0.214286     24.000000
 -0.285714  0.500000  0.214286     12.000000
 -0.250000  0.500000  0.250000      6.000000
 
 Following cartesian coordinates:
            Coordinates               Weight
  0.000000  0.000000  0.000000      1.000000
  0.035714  0.035714 -0.035714      8.000000
  0.071429  0.071429 -0.071429      8.000000
  0.107143  0.107143 -0.107143      8.000000
  0.142857  0.142857 -0.142857      8.000000
  0.178571  0.178571 -0.178571      8.000000
  0.214286  0.214286 -0.214286      8.000000
  0.250000  0.250000 -0.250000      8.000000
  0.285714  0.285714 -0.285714      8.000000
  0.321429  0.321429 -0.321429      8.000000
  0.357143  0.357143 -0.357143      8.000000
  0.392857  0.392857 -0.392857      8.000000
  0.428571  0.428571 -0.428571      8.000000
  0.464286  0.464286 -0.464286      8.000000
  0.500000  0.500000 -0.500000      4.000000
  0.000000  0.071429  0.000000      6.000000
  0.035714  0.107143 -0.035714     24.000000
  0.071429  0.142857 -0.071429     24.000000
  0.107143  0.178571 -0.107143     24.000000
  0.142857  0.214286 -0.142857     24.000000
  0.178571  0.250000 -0.178571     24.000000
  0.214286  0.285714 -0.214286     24.000000
  0.250000  0.321429 -0.250000     24.000000
  0.285714  0.357143 -0.285714     24.000000
  0.321429  0.392857 -0.321429     24.000000
  0.357143  0.428571 -0.357143     24.000000
  0.392857  0.464286 -0.392857     24.000000
  0.428571  0.500000 -0.428571     24.000000
  0.464286  0.535714 -0.464286     24.000000
 -0.500000 -0.428571  0.500000     24.000000
 -0.464286 -0.392857  0.464286     24.000000
 -0.428571 -0.357143  0.428571     24.000000
 -0.392857 -0.321429  0.392857     24.000000
 -0.357143 -0.285714  0.357143     24.000000
 -0.321429 -0.250000  0.321429     24.000000
 -0.285714 -0.214286  0.285714     24.000000
 -0.250000 -0.178571  0.250000     24.000000
 -0.214286 -0.142857  0.214286     24.000000
 -0.178571 -0.107143  0.178571     24.000000
 -0.142857 -0.071429  0.142857     24.000000
 -0.107143 -0.035714  0.107143     24.000000
 -0.071429  0.000000  0.071429     12.000000
  0.000000  0.142857  0.000000      6.000000
  0.035714  0.178571 -0.035714     24.000000
  0.071429  0.214286 -0.071429     24.000000
  0.107143  0.250000 -0.107143     24.000000
  0.142857  0.285714 -0.142857     24.000000
  0.178571  0.321429 -0.178571     24.000000
  0.214286  0.357143 -0.214286     24.000000
  0.250000  0.392857 -0.250000     24.000000
  0.285714  0.428571 -0.285714     24.000000
  0.321429  0.464286 -0.321429     24.000000
  0.357143  0.500000 -0.357143     24.000000
  0.392857  0.535714 -0.392857     24.000000
  0.428571  0.571429 -0.428571     24.000000
 -0.535714 -0.392857  0.535714     24.000000
 -0.500000 -0.357143  0.500000     24.000000
 -0.464286 -0.321429  0.464286     24.000000
 -0.428571 -0.285714  0.428571     24.000000
 -0.392857 -0.250000  0.392857     24.000000
 -0.357143 -0.214286  0.357143     24.000000
 -0.321429 -0.178571  0.321429     24.000000
 -0.285714 -0.142857  0.285714     24.000000
 -0.250000 -0.107143  0.250000     24.000000
 -0.214286 -0.071429  0.214286     24.000000
 -0.178571 -0.035714  0.178571     24.000000
 -0.142857  0.000000  0.142857     12.000000
  0.000000  0.214286  0.000000      6.000000
  0.035714  0.250000 -0.035714     24.000000
  0.071429  0.285714 -0.071429     24.000000
  0.107143  0.321429 -0.107143     24.000000
  0.142857  0.357143 -0.142857     24.000000
  0.178571  0.392857 -0.178571     24.000000
  0.214286  0.428571 -0.214286     24.000000
  0.250000  0.464286 -0.250000     24.000000
  0.285714  0.500000 -0.285714     24.000000
  0.321429  0.535714 -0.321429     24.000000
  0.357143  0.571429 -0.357143     24.000000
  0.392857  0.607143 -0.392857     24.000000
 -0.571429 -0.357143  0.571429     24.000000
 -0.535714 -0.321429  0.535714     24.000000
 -0.500000 -0.285714  0.500000     24.000000
 -0.464286 -0.250000  0.464286     24.000000
 -0.428571 -0.214286  0.428571     24.000000
 -0.392857 -0.178571  0.392857     24.000000
 -0.357143 -0.142857  0.357143     24.000000
 -0.321429 -0.107143  0.321429     24.000000
 -0.285714 -0.071429  0.285714     24.000000
 -0.250000 -0.035714  0.250000     24.000000
 -0.214286  0.000000  0.214286     12.000000
  0.000000  0.285714  0.000000      6.000000
  0.035714  0.321429 -0.035714     24.000000
  0.071429  0.357143 -0.071429     24.000000
  0.107143  0.392857 -0.107143     24.000000
  0.142857  0.428571 -0.142857     24.000000
  0.178571  0.464286 -0.178571     24.000000
  0.214286  0.500000 -0.214286     24.000000
  0.250000  0.535714 -0.250000     24.000000
  0.285714  0.571429 -0.285714     24.000000
  0.321429  0.607143 -0.321429     24.000000
  0.357143  0.642857 -0.357143     24.000000
 -0.607143 -0.321429  0.607143     24.000000
 -0.571429 -0.285714  0.571429     24.000000
 -0.535714 -0.250000  0.535714     24.000000
 -0.500000 -0.214286  0.500000     24.000000
 -0.464286 -0.178571  0.464286     24.000000
 -0.428571 -0.142857  0.428571     24.000000
 -0.392857 -0.107143  0.392857     24.000000
 -0.357143 -0.071429  0.357143     24.000000
 -0.321429 -0.035714  0.321429     24.000000
 -0.285714 -0.000000  0.285714     12.000000
  0.000000  0.357143  0.000000      6.000000
  0.035714  0.392857 -0.035714     24.000000
  0.071429  0.428571 -0.071429     24.000000
  0.107143  0.464286 -0.107143     24.000000
  0.142857  0.500000 -0.142857     24.000000
  0.178571  0.535714 -0.178571     24.000000
  0.214286  0.571429 -0.214286     24.000000
  0.250000  0.607143 -0.250000     24.000000
  0.285714  0.642857 -0.285714     24.000000
  0.321429  0.678571 -0.321429     24.000000
 -0.642857 -0.285714  0.642857     24.000000
 -0.607143 -0.250000  0.607143     24.000000
 -0.571429 -0.214286  0.571429     24.000000
 -0.535714 -0.178571  0.535714     24.000000
 -0.500000 -0.142857  0.500000     24.000000
 -0.464286 -0.107143  0.464286     24.000000
 -0.428571 -0.071429  0.428571     24.000000
 -0.392857 -0.035714  0.392857     24.000000
 -0.357143 -0.000000  0.357143     12.000000
  0.000000  0.428571  0.000000      6.000000
  0.035714  0.464286 -0.035714     24.000000
  0.071429  0.500000 -0.071429     24.000000
  0.107143  0.535714 -0.107143     24.000000
  0.142857  0.571429 -0.142857     24.000000
  0.178571  0.607143 -0.178571     24.000000
  0.214286  0.642857 -0.214286     24.000000
  0.250000  0.678571 -0.250000     24.000000
  0.285714  0.714286 -0.285714     24.000000
 -0.678571 -0.250000  0.678571     24.000000
 -0.642857 -0.214286  0.642857     24.000000
 -0.607143 -0.178571  0.607143     24.000000
 -0.571429 -0.142857  0.571429     24.000000
 -0.535714 -0.107143  0.535714     24.000000
 -0.500000 -0.071429  0.500000     24.000000
 -0.464286 -0.035714  0.464286     24.000000
 -0.428571 -0.000000  0.428571     12.000000
  0.000000  0.500000  0.000000      6.000000
  0.035714  0.535714 -0.035714     24.000000
  0.071429  0.571429 -0.071429     24.000000
  0.107143  0.607143 -0.107143     24.000000
  0.142857  0.642857 -0.142857     24.000000
  0.178571  0.678571 -0.178571     24.000000
  0.214286  0.714286 -0.214286     24.000000
  0.250000  0.750000 -0.250000     24.000000
 -0.714286 -0.214286  0.714286     24.000000
 -0.678571 -0.178571  0.678571     24.000000
 -0.642857 -0.142857  0.642857     24.000000
 -0.607143 -0.107143  0.607143     24.000000
 -0.571429 -0.071429  0.571429     24.000000
 -0.535714 -0.035714  0.535714     24.000000
 -0.500000 -0.000000  0.500000     12.000000
  0.000000  0.571429  0.000000      6.000000
  0.035714  0.607143 -0.035714     24.000000
  0.071429  0.642857 -0.071429     24.000000
  0.107143  0.678571 -0.107143     24.000000
  0.142857  0.714286 -0.142857     24.000000
  0.178571  0.750000 -0.178571     24.000000
  0.214286  0.785714 -0.214286     24.000000
 -0.750000 -0.178571  0.750000     24.000000
 -0.714286 -0.142857  0.714286     24.000000
 -0.678571 -0.107143  0.678571     24.000000
 -0.642857 -0.071429  0.642857     24.000000
 -0.607143 -0.035714  0.607143     24.000000
 -0.571429  0.000000  0.571429     12.000000
  0.000000  0.642857  0.000000      6.000000
  0.035714  0.678571 -0.035714     24.000000
  0.071429  0.714286 -0.071429     24.000000
  0.107143  0.750000 -0.107143     24.000000
  0.142857  0.785714 -0.142857     24.000000
  0.178571  0.821429 -0.178571     24.000000
 -0.785714 -0.142857  0.785714     24.000000
 -0.750000 -0.107143  0.750000     24.000000
 -0.714286 -0.071429  0.714286     24.000000
 -0.678571 -0.035714  0.678571     24.000000
 -0.642857  0.000000  0.642857     12.000000
  0.000000  0.714286  0.000000      6.000000
  0.035714  0.750000 -0.035714     24.000000
  0.071429  0.785714 -0.071429     24.000000
  0.107143  0.821429 -0.107143     24.000000
  0.142857  0.857143 -0.142857     24.000000
 -0.821429 -0.107143  0.821429     24.000000
 -0.785714 -0.071429  0.785714     24.000000
 -0.750000 -0.035714  0.750000     24.000000
 -0.714286  0.000000  0.714286     12.000000
  0.000000  0.785714  0.000000      6.000000
  0.035714  0.821429 -0.035714     24.000000
  0.071429  0.857143 -0.071429     24.000000
  0.107143  0.892857 -0.107143     24.000000
 -0.857143 -0.071429  0.857143     24.000000
 -0.821429 -0.035714  0.821429     24.000000
 -0.785714 -0.000000  0.785714     12.000000
  0.000000  0.857143  0.000000      6.000000
  0.035714  0.892857 -0.035714     24.000000
  0.071429  0.928571 -0.071429     24.000000
 -0.892857 -0.035714  0.892857     24.000000
 -0.857143 -0.000000  0.857143     12.000000
  0.000000  0.928571  0.000000      6.000000
  0.035714  0.964286 -0.035714     24.000000
 -0.928571 -0.000000  0.928571     12.000000
  0.000000  1.000000  0.000000      3.000000
  0.071429  0.142857  0.000000     24.000000
  0.107143  0.178571 -0.035714     48.000000
  0.142857  0.214286 -0.071429     48.000000
  0.178571  0.250000 -0.107143     48.000000
  0.214286  0.285714 -0.142857     48.000000
  0.250000  0.321429 -0.178571     48.000000
  0.285714  0.357143 -0.214286     48.000000
  0.321429  0.392857 -0.250000     48.000000
  0.357143  0.428571 -0.285714     48.000000
  0.392857  0.464286 -0.321429     48.000000
  0.428571  0.500000 -0.357143     48.000000
  0.464286  0.535714 -0.392857     48.000000
 -0.500000 -0.428571  0.571429     24.000000
  0.071429  0.214286 -0.000000     24.000000
  0.107143  0.250000 -0.035714     48.000000
  0.142857  0.285714 -0.071429     48.000000
  0.178571  0.321429 -0.107143     48.000000
  0.214286  0.357143 -0.142857     48.000000
  0.250000  0.392857 -0.178571     48.000000
  0.285714  0.428571 -0.214286     48.000000
  0.321429  0.464286 -0.250000     48.000000
  0.357143  0.500000 -0.285714     48.000000
  0.392857  0.535714 -0.321429     48.000000
  0.428571  0.571429 -0.357143     48.000000
 -0.535714 -0.392857  0.607143     48.000000
 -0.500000 -0.357143  0.571429     48.000000
 -0.464286 -0.321429  0.535714     48.000000
 -0.428571 -0.285714  0.500000     48.000000
 -0.392857 -0.250000  0.464286     48.000000
 -0.357143 -0.214286  0.428571     48.000000
 -0.321429 -0.178571  0.392857     48.000000
 -0.285714 -0.142857  0.357143     48.000000
 -0.250000 -0.107143  0.321429     48.000000
 -0.214286 -0.071429  0.285714     48.000000
 -0.178571 -0.035714  0.250000     48.000000
 -0.142857  0.000000  0.214286     24.000000
  0.071429  0.285714  0.000000     24.000000
  0.107143  0.321429 -0.035714     48.000000
  0.142857  0.357143 -0.071429     48.000000
  0.178571  0.392857 -0.107143     48.000000
  0.214286  0.428571 -0.142857     48.000000
  0.250000  0.464286 -0.178571     48.000000
  0.285714  0.500000 -0.214286     48.000000
  0.321429  0.535714 -0.250000     48.000000
  0.357143  0.571429 -0.285714     48.000000
  0.392857  0.607143 -0.321429     48.000000
 -0.571429 -0.357143  0.642857     48.000000
 -0.535714 -0.321429  0.607143     48.000000
 -0.500000 -0.285714  0.571429     48.000000
 -0.464286 -0.250000  0.535714     48.000000
 -0.428571 -0.214286  0.500000     48.000000
 -0.392857 -0.178571  0.464286     48.000000
 -0.357143 -0.142857  0.428571     48.000000
 -0.321429 -0.107143  0.392857     48.000000
 -0.285714 -0.071429  0.357143     48.000000
 -0.250000 -0.035714  0.321429     48.000000
 -0.214286  0.000000  0.285714     24.000000
  0.071429  0.357143  0.000000     24.000000
  0.107143  0.392857 -0.035714     48.000000
  0.142857  0.428571 -0.071429     48.000000
  0.178571  0.464286 -0.107143     48.000000
  0.214286  0.500000 -0.142857     48.000000
  0.250000  0.535714 -0.178571     48.000000
  0.285714  0.571429 -0.214286     48.000000
  0.321429  0.607143 -0.250000     48.000000
  0.357143  0.642857 -0.285714     48.000000
 -0.607143 -0.321429  0.678571     48.000000
 -0.571429 -0.285714  0.642857     48.000000
 -0.535714 -0.250000  0.607143     48.000000
 -0.500000 -0.214286  0.571429     48.000000
 -0.464286 -0.178571  0.535714     48.000000
 -0.428571 -0.142857  0.500000     48.000000
 -0.392857 -0.107143  0.464286     48.000000
 -0.357143 -0.071429  0.428571     48.000000
 -0.321429 -0.035714  0.392857     48.000000
 -0.285714 -0.000000  0.357143     24.000000
  0.071429  0.428571  0.000000     24.000000
  0.107143  0.464286 -0.035714     48.000000
  0.142857  0.500000 -0.071429     48.000000
  0.178571  0.535714 -0.107143     48.000000
  0.214286  0.571429 -0.142857     48.000000
  0.250000  0.607143 -0.178571     48.000000
  0.285714  0.642857 -0.214286     48.000000
  0.321429  0.678571 -0.250000     48.000000
 -0.642857 -0.285714  0.714286     48.000000
 -0.607143 -0.250000  0.678571     48.000000
 -0.571429 -0.214286  0.642857     48.000000
 -0.535714 -0.178571  0.607143     48.000000
 -0.500000 -0.142857  0.571429     48.000000
 -0.464286 -0.107143  0.535714     48.000000
 -0.428571 -0.071429  0.500000     48.000000
 -0.392857 -0.035714  0.464286     48.000000
 -0.357143 -0.000000  0.428571     24.000000
  0.071429  0.500000  0.000000     24.000000
  0.107143  0.535714 -0.035714     48.000000
  0.142857  0.571429 -0.071429     48.000000
  0.178571  0.607143 -0.107143     48.000000
  0.214286  0.642857 -0.142857     48.000000
  0.250000  0.678571 -0.178571     48.000000
  0.285714  0.714286 -0.214286     48.000000
 -0.678571 -0.250000  0.750000     48.000000
 -0.642857 -0.214286  0.714286     48.000000
 -0.607143 -0.178571  0.678571     48.000000
 -0.571429 -0.142857  0.642857     48.000000
 -0.535714 -0.107143  0.607143     48.000000
 -0.500000 -0.071429  0.571429     48.000000
 -0.464286 -0.035714  0.535714     48.000000
 -0.428571 -0.000000  0.500000     24.000000
  0.071429  0.571429  0.000000     24.000000
  0.107143  0.607143 -0.035714     48.000000
  0.142857  0.642857 -0.071429     48.000000
  0.178571  0.678571 -0.107143     48.000000
  0.214286  0.714286 -0.142857     48.000000
  0.250000  0.750000 -0.178571     48.000000
 -0.714286 -0.214286  0.785714     48.000000
 -0.678571 -0.178571  0.750000     48.000000
 -0.642857 -0.142857  0.714286     48.000000
 -0.607143 -0.107143  0.678571     48.000000
 -0.571429 -0.071429  0.642857     48.000000
 -0.535714 -0.035714  0.607143     48.000000
 -0.500000  0.000000  0.571429     24.000000
  0.071429  0.642857  0.000000     24.000000
  0.107143  0.678571 -0.035714     48.000000
  0.142857  0.714286 -0.071429     48.000000
  0.178571  0.750000 -0.107143     48.000000
  0.214286  0.785714 -0.142857     48.000000
 -0.750000 -0.178571  0.821429     48.000000
 -0.714286 -0.142857  0.785714     48.000000
 -0.678571 -0.107143  0.750000     48.000000
 -0.642857 -0.071429  0.714286     48.000000
 -0.607143 -0.035714  0.678571     48.000000
 -0.571429  0.000000  0.642857     24.000000
  0.071429  0.714286 -0.000000     24.000000
  0.107143  0.750000 -0.035714     48.000000
  0.142857  0.785714 -0.071429     48.000000
  0.178571  0.821429 -0.107143     48.000000
 -0.785714 -0.142857  0.857143     48.000000
 -0.750000 -0.107143  0.821429     48.000000
 -0.714286 -0.071429  0.785714     48.000000
 -0.678571 -0.035714  0.750000     48.000000
 -0.642857  0.000000  0.714286     24.000000
  0.071429  0.785714  0.000000     24.000000
  0.107143  0.821429 -0.035714     48.000000
  0.142857  0.857143 -0.071429     48.000000
 -0.821429 -0.107143  0.892857     48.000000
 -0.785714 -0.071429  0.857143     48.000000
 -0.750000 -0.035714  0.821429     48.000000
 -0.714286  0.000000  0.785714     24.000000
  0.071429  0.857143  0.000000     24.000000
  0.107143  0.892857 -0.035714     48.000000
 -0.857143 -0.071429  0.928571     48.000000
 -0.821429 -0.035714  0.892857     48.000000
 -0.785714 -0.000000  0.857143     24.000000
  0.071429  0.928571  0.000000     24.000000
 -0.892857 -0.035714  0.964286     48.000000
 -0.857143 -0.000000  0.928571     24.000000
 -0.928571 -0.000000  1.000000     12.000000
  0.142857  0.285714  0.000000     24.000000
  0.178571  0.321429 -0.035714     48.000000
  0.214286  0.357143 -0.071429     48.000000
  0.250000  0.392857 -0.107143     48.000000
  0.285714  0.428571 -0.142857     48.000000
  0.321429  0.464286 -0.178571     48.000000
  0.357143  0.500000 -0.214286     48.000000
  0.392857  0.535714 -0.250000     48.000000
  0.428571  0.571429 -0.285714     48.000000
 -0.535714 -0.392857  0.678571     48.000000
 -0.500000 -0.357143  0.642857     24.000000
  0.142857  0.357143  0.000000     24.000000
  0.178571  0.392857 -0.035714     48.000000
  0.214286  0.428571 -0.071429     48.000000
  0.250000  0.464286 -0.107143     48.000000
  0.285714  0.500000 -0.142857     48.000000
  0.321429  0.535714 -0.178571     48.000000
  0.357143  0.571429 -0.214286     48.000000
  0.392857  0.607143 -0.250000     48.000000
 -0.571429 -0.357143  0.714286     48.000000
 -0.535714 -0.321429  0.678571     48.000000
 -0.500000 -0.285714  0.642857     48.000000
 -0.464286 -0.250000  0.607143     48.000000
 -0.428571 -0.214286  0.571429     48.000000
 -0.392857 -0.178571  0.535714     48.000000
 -0.357143 -0.142857  0.500000     48.000000
 -0.321429 -0.107143  0.464286     48.000000
 -0.285714 -0.071429  0.428571     48.000000
 -0.250000 -0.035714  0.392857     48.000000
 -0.214286  0.000000  0.357143     24.000000
  0.142857  0.428571  0.000000     24.000000
  0.178571  0.464286 -0.035714     48.000000
  0.214286  0.500000 -0.071429     48.000000
  0.250000  0.535714 -0.107143     48.000000
  0.285714  0.571429 -0.142857     48.000000
  0.321429  0.607143 -0.178571     48.000000
  0.357143  0.642857 -0.214286     48.000000
 -0.607143 -0.321429  0.750000     48.000000
 -0.571429 -0.285714  0.714286     48.000000
 -0.535714 -0.250000  0.678571     48.000000
 -0.500000 -0.214286  0.642857     48.000000
 -0.464286 -0.178571  0.607143     48.000000
 -0.428571 -0.142857  0.571429     48.000000
 -0.392857 -0.107143  0.535714     48.000000
 -0.357143 -0.071429  0.500000     48.000000
 -0.321429 -0.035714  0.464286     48.000000
 -0.285714 -0.000000  0.428571     24.000000
  0.142857  0.500000  0.000000     24.000000
  0.178571  0.535714 -0.035714     48.000000
  0.214286  0.571429 -0.071429     48.000000
  0.250000  0.607143 -0.107143     48.000000
  0.285714  0.642857 -0.142857     48.000000
  0.321429  0.678571 -0.178571     48.000000
 -0.642857 -0.285714  0.785714     48.000000
 -0.607143 -0.250000  0.750000     48.000000
 -0.571429 -0.214286  0.714286     48.000000
 -0.535714 -0.178571  0.678571     48.000000
 -0.500000 -0.142857  0.642857     48.000000
 -0.464286 -0.107143  0.607143     48.000000
 -0.428571 -0.071429  0.571429     48.000000
 -0.392857 -0.035714  0.535714     48.000000
 -0.357143 -0.000000  0.500000     24.000000
  0.142857  0.571429  0.000000     24.000000
  0.178571  0.607143 -0.035714     48.000000
  0.214286  0.642857 -0.071429     48.000000
  0.250000  0.678571 -0.107143     48.000000
  0.285714  0.714286 -0.142857     48.000000
 -0.678571 -0.250000  0.821429     48.000000
 -0.642857 -0.214286  0.785714     48.000000
 -0.607143 -0.178571  0.750000     48.000000
 -0.571429 -0.142857  0.714286     48.000000
 -0.535714 -0.107143  0.678571     48.000000
 -0.500000 -0.071429  0.642857     48.000000
 -0.464286 -0.035714  0.607143     48.000000
 -0.428571 -0.000000  0.571429     24.000000
  0.142857  0.642857 -0.000000     24.000000
  0.178571  0.678571 -0.035714     48.000000
  0.214286  0.714286 -0.071429     48.000000
  0.250000  0.750000 -0.107143     48.000000
 -0.714286 -0.214286  0.857143     48.000000
 -0.678571 -0.178571  0.821429     48.000000
 -0.642857 -0.142857  0.785714     48.000000
 -0.607143 -0.107143  0.750000     48.000000
 -0.571429 -0.071429  0.714286     48.000000
 -0.535714 -0.035714  0.678571     48.000000
 -0.500000  0.000000  0.642857     24.000000
  0.142857  0.714286 -0.000000     24.000000
  0.178571  0.750000 -0.035714     48.000000
  0.214286  0.785714 -0.071429     48.000000
 -0.750000 -0.178571  0.892857     48.000000
 -0.714286 -0.142857  0.857143     48.000000
 -0.678571 -0.107143  0.821429     48.000000
 -0.642857 -0.071429  0.785714     48.000000
 -0.607143 -0.035714  0.750000     48.000000
 -0.571429  0.000000  0.714286     24.000000
  0.142857  0.785714  0.000000     24.000000
  0.178571  0.821429 -0.035714     48.000000
 -0.785714 -0.142857  0.928571     48.000000
 -0.750000 -0.107143  0.892857     48.000000
 -0.714286 -0.071429  0.857143     48.000000
 -0.678571 -0.035714  0.821429     48.000000
 -0.642857  0.000000  0.785714     24.000000
  0.142857  0.857143  0.000000     24.000000
 -0.821429 -0.107143  0.964286     48.000000
 -0.785714 -0.071429  0.928571     48.000000
 -0.750000 -0.035714  0.892857     48.000000
 -0.714286  0.000000  0.857143     24.000000
 -0.857143 -0.071429  1.000000     24.000000
 -0.821429 -0.035714  0.964286     48.000000
 -0.785714 -0.000000  0.928571     24.000000
 -0.857143 -0.000000  1.000000     12.000000
  0.214286  0.428571  0.000000     24.000000
  0.250000  0.464286 -0.035714     48.000000
  0.285714  0.500000 -0.071429     48.000000
  0.321429  0.535714 -0.107143     48.000000
  0.357143  0.571429 -0.142857     48.000000
  0.392857  0.607143 -0.178571     48.000000
 -0.571429 -0.357143  0.785714     48.000000
 -0.535714 -0.321429  0.750000     48.000000
 -0.500000 -0.285714  0.714286     24.000000
  0.214286  0.500000  0.000000     24.000000
  0.250000  0.535714 -0.035714     48.000000
  0.285714  0.571429 -0.071429     48.000000
  0.321429  0.607143 -0.107143     48.000000
  0.357143  0.642857 -0.142857     48.000000
 -0.607143 -0.321429  0.821429     48.000000
 -0.571429 -0.285714  0.785714     48.000000
 -0.535714 -0.250000  0.750000     48.000000
 -0.500000 -0.214286  0.714286     48.000000
 -0.464286 -0.178571  0.678571     48.000000
 -0.428571 -0.142857  0.642857     48.000000
 -0.392857 -0.107143  0.607143     48.000000
 -0.357143 -0.071429  0.571429     48.000000
 -0.321429 -0.035714  0.535714     48.000000
 -0.285714 -0.000000  0.500000     24.000000
  0.214286  0.571429 -0.000000     24.000000
  0.250000  0.607143 -0.035714     48.000000
  0.285714  0.642857 -0.071429     48.000000
  0.321429  0.678571 -0.107143     48.000000
 -0.642857 -0.285714  0.857143     48.000000
 -0.607143 -0.250000  0.821429     48.000000
 -0.571429 -0.214286  0.785714     48.000000
 -0.535714 -0.178571  0.750000     48.000000
 -0.500000 -0.142857  0.714286     48.000000
 -0.464286 -0.107143  0.678571     48.000000
 -0.428571 -0.071429  0.642857     48.000000
 -0.392857 -0.035714  0.607143     48.000000
 -0.357143 -0.000000  0.571429     24.000000
  0.214286  0.642857 -0.000000     24.000000
  0.250000  0.678571 -0.035714     48.000000
  0.285714  0.714286 -0.071429     48.000000
 -0.678571 -0.250000  0.892857     48.000000
 -0.642857 -0.214286  0.857143     48.000000
 -0.607143 -0.178571  0.821429     48.000000
 -0.571429 -0.142857  0.785714     48.000000
 -0.535714 -0.107143  0.750000     48.000000
 -0.500000 -0.071429  0.714286     48.000000
 -0.464286 -0.035714  0.678571     48.000000
 -0.428571 -0.000000  0.642857     24.000000
  0.214286  0.714286 -0.000000     24.000000
  0.250000  0.750000 -0.035714     48.000000
 -0.714286 -0.214286  0.928571     48.000000
 -0.678571 -0.178571  0.892857     48.000000
 -0.642857 -0.142857  0.857143     48.000000
 -0.607143 -0.107143  0.821429     48.000000
 -0.571429 -0.071429  0.785714     48.000000
 -0.535714 -0.035714  0.750000     48.000000
 -0.500000 -0.000000  0.714286     24.000000
  0.214286  0.785714  0.000000     24.000000
 -0.750000 -0.178571  0.964286     48.000000
 -0.714286 -0.142857  0.928571     48.000000
 -0.678571 -0.107143  0.892857     48.000000
 -0.642857 -0.071429  0.857143     48.000000
 -0.607143 -0.035714  0.821429     48.000000
 -0.571429  0.000000  0.785714     24.000000
 -0.785714 -0.142857  1.000000     24.000000
 -0.750000 -0.107143  0.964286     48.000000
 -0.714286 -0.071429  0.928571     48.000000
 -0.678571 -0.035714  0.892857     48.000000
 -0.642857  0.000000  0.857143     24.000000
 -0.785714 -0.071429  1.000000     24.000000
 -0.750000 -0.035714  0.964286     48.000000
 -0.714286  0.000000  0.928571     24.000000
 -0.785714 -0.000000  1.000000     12.000000
  0.285714  0.571429 -0.000000     24.000000
  0.321429  0.607143 -0.035714     48.000000
  0.357143  0.642857 -0.071429     48.000000
 -0.607143 -0.321429  0.892857     48.000000
 -0.571429 -0.285714  0.857143     48.000000
 -0.535714 -0.250000  0.821429     48.000000
 -0.500000 -0.214286  0.785714     24.000000
  0.285714  0.642857 -0.000000     24.000000
  0.321429  0.678571 -0.035714     48.000000
 -0.642857 -0.285714  0.928571     48.000000
 -0.607143 -0.250000  0.892857     48.000000
 -0.571429 -0.214286  0.857143     48.000000
 -0.535714 -0.178571  0.821429     48.000000
 -0.500000 -0.142857  0.785714     48.000000
 -0.464286 -0.107143  0.750000     48.000000
 -0.428571 -0.071429  0.714286     48.000000
 -0.392857 -0.035714  0.678571     48.000000
 -0.357143 -0.000000  0.642857     24.000000
  0.285714  0.714286 -0.000000     24.000000
 -0.678571 -0.250000  0.964286     48.000000
 -0.642857 -0.214286  0.928571     48.000000
 -0.607143 -0.178571  0.892857     48.000000
 -0.571429 -0.142857  0.857143     48.000000
 -0.535714 -0.107143  0.821429     48.000000
 -0.500000 -0.071429  0.785714     48.000000
 -0.464286 -0.035714  0.750000     48.000000
 -0.428571 -0.000000  0.714286     24.000000
 -0.714286 -0.214286  1.000000     24.000000
 -0.678571 -0.178571  0.964286     48.000000
 -0.642857 -0.142857  0.928571     48.000000
 -0.607143 -0.107143  0.892857     48.000000
 -0.571429 -0.071429  0.857143     48.000000
 -0.535714 -0.035714  0.821429     48.000000
 -0.500000  0.000000  0.785714     24.000000
 -0.714286 -0.142857  1.000000     24.000000
 -0.678571 -0.107143  0.964286     48.000000
 -0.642857 -0.071429  0.928571     48.000000
 -0.607143 -0.035714  0.892857     48.000000
 -0.571429  0.000000  0.857143     24.000000
 -0.714286 -0.071429  1.000000     24.000000
 -0.678571 -0.035714  0.964286     48.000000
 -0.642857  0.000000  0.928571     24.000000
 -0.714286  0.000000  1.000000     12.000000
 -0.642857 -0.285714  1.000000     24.000000
 -0.607143 -0.250000  0.964286     48.000000
 -0.571429 -0.214286  0.928571     48.000000
 -0.535714 -0.178571  0.892857     48.000000
 -0.500000 -0.142857  0.857143     24.000000
 -0.642857 -0.214286  1.000000     24.000000
 -0.607143 -0.178571  0.964286     48.000000
 -0.571429 -0.142857  0.928571     48.000000
 -0.535714 -0.107143  0.892857     48.000000
 -0.500000 -0.071429  0.857143     48.000000
 -0.464286 -0.035714  0.821429     48.000000
 -0.428571 -0.000000  0.785714     24.000000
 -0.642857 -0.142857  1.000000     24.000000
 -0.607143 -0.107143  0.964286     48.000000
 -0.571429 -0.071429  0.928571     48.000000
 -0.535714 -0.035714  0.892857     48.000000
 -0.500000  0.000000  0.857143     24.000000
 -0.642857 -0.071429  1.000000     24.000000
 -0.607143 -0.035714  0.964286     48.000000
 -0.571429  0.000000  0.928571     24.000000
 -0.642857  0.000000  1.000000     12.000000
 -0.571429 -0.142857  1.000000     24.000000
 -0.535714 -0.107143  0.964286     48.000000
 -0.500000 -0.071429  0.928571     24.000000
 -0.571429 -0.071429  1.000000     24.000000
 -0.535714 -0.035714  0.964286     48.000000
 -0.500000  0.000000  0.928571     24.000000
 -0.571429  0.000000  1.000000     12.000000
 -0.500000  0.000000  1.000000      6.000000
 


--------------------------------------------------------------------------------------------------------




 Dimension of arrays:
   k-points           NKPTS =    624   k-points in BZ     NKDIM =    624   number of bands    NBANDS=      8
   number of dos      NEDOS =    301   number of ions     NIONS =      1
   non local maximal  LDIM  =      4   non local SUM 2l+1 LMDIM =      8
   total plane-waves  NPLWV =   4096
   max r-space proj   IRMAX =   1490   max aug-charges    IRDMAX=   9433
   dimension x,y,z NGX =    16 NGY =   16 NGZ =   16
   dimension x,y,z NGXF=    32 NGYF=   32 NGZF=   32
   support grid    NGXF=    32 NGYF=   32 NGZF=   32
   ions per type =               1
   NGX,Y,Z   is equivalent  to a cutoff of   9.65,  9.65,  9.65 a.u.
   NGXF,Y,Z  is equivalent  to a cutoff of  19.29, 19.29, 19.29 a.u.

 SYSTEM =  DFT Groundstate Calculation             
 POSCAR =  fcc Si:                                 

 Startparameter for this run:
   NWRITE =      2    write-flag & timer
   PREC   = normal    normal or accurate (medium, high low for compatibility)
   ISTART =      0    job   : 0-new  1-cont  2-samecut
   ICHARG =      2    charge: 1-file 2-atom 10-const
   ISPIN  =      1    spin polarized calculation?
   LNONCOLLINEAR =      F non collinear calculations
   LSORBIT =      F    spin-orbit coupling
   INIWAV =      1    electr: 0-lowe 1-rand  2-diag
   LASPH  =      F    aspherical Exc in radial PAW
 Electronic Relaxation 1
   ENCUT  =  520.0 eV  38.22 Ry    6.18 a.u.   5.13  5.13  5.13*2*pi/ulx,y,z
   ENINI  =  520.0     initial cutoff
   ENAUG  =  322.1 eV  augmentation charge cutoff
   NELM   =     60;   NELMIN=  2; NELMDL= -5     # of ELM steps 
   EDIFF  = 0.1E-07   stopping-criterion for ELM
   LREAL  =      T    real-space projection
   NLSPLINE    = F    spline interpolate recip. space projectors
   LCOMPAT=      F    compatible to vasp.4.4
   GGA_COMPAT  = T    GGA compatible to vasp.4.4-vasp.4.6
   LMAXPAW     = -100 max onsite density
   LMAXMIX     =    2 max onsite mixed and CHGCAR
   VOSKOWN=      0    Vosko Wilk Nusair interpolation
   ROPT   =   -0.00050
 Ionic relaxation
   EDIFFG = 0.1E-06   stopping-criterion for IOM
   NSW    =     50    number of steps for IOM
   NBLOCK =      1;   KBLOCK =     50    inner block; outer block 
   IBRION =      2    ionic relax: 0-MD 1-quasi-New 2-CG
   NFREE  =      1    steps in history (QN), initial steepest desc. (CG)
   ISIF   =      3    stress and relaxation
   IWAVPR =     11    prediction:  0-non 1-charg 2-wave 3-comb
   ISYM   =      2    0-nonsym 1-usesym 2-fastsym
   LCORR  =      T    Harris-Foulkes like correction to forces

   POTIM  = 0.5000    time-step for ionic-motion
   TEIN   =    0.0    initial temperature
   TEBEG  =    0.0;   TEEND  =   0.0 temperature during run
   SMASS  =  -3.00    Nose mass-parameter (am)
   estimated Nose-frequenzy (Omega)   =  0.10E-29 period in steps = 0.13E+47 mass=  -0.174E-27a.u.
   SCALEE = 1.0000    scale energy and forces
   NPACO  =    256;   APACO  = 10.0  distance and # of slots for P.C.
   PSTRESS=    0.0 pullay stress

  Mass of Ions in am
   POMASS =  28.09
  Ionic Valenz
   ZVAL   =   4.00
  Atomic Wigner-Seitz radii
   RWIGS  =  -1.00
  virtual crystal weights 
   VCA    =   1.00
   NELECT =       4.0000    total number of electrons
   NUPDOWN=      -1.0000    fix difference up-down

 DOS related values:
   EMIN   =  10.00;   EMAX   =-10.00  energy-range for DOS
   EFERMI =   0.00
   ISMEAR =     0;   SIGMA  =   0.05  broadening in eV -4-tet -1-fermi 0-gaus

 Electronic relaxation 2 (details)
   IALGO  =     38    algorithm
   LDIAG  =      T    sub-space diagonalisation (order eigenvalues)
   LSUBROT=      F    optimize rotation matrix (better conditioning)
   TURBO    =      0    0=normal 1=particle mesh
   IRESTART =      0    0=no restart 2=restart with 2 vectors
   NREBOOT  =      0    no. of reboots
   NMIN     =      0    reboot dimension
   EREF     =   0.00    reference energy to select bands
   IMIX   =      4    mixing-type and parameters
     AMIX     =   0.40;   BMIX     =  1.00
     AMIX_MAG =   1.60;   BMIX_MAG =  1.00
     AMIN     =   0.10
     WC   =   100.;   INIMIX=   1;  MIXPRE=   1;  MAXMIX= -45

 Intra band minimization:
   WEIMIN = 0.0010     energy-eigenvalue tresh-hold
   EBREAK =  0.31E-09  absolut break condition
   DEPER  =   0.30     relativ break condition  

   TIME   =   0.40     timestep for ELM

  volume/ion in A,a.u.               =      14.83       100.08
  Fermi-wavevector in a.u.,A,eV,Ry     =   1.057751  1.998860 15.222711  1.118838
  Thomas-Fermi vector in A             =   2.193036
 
 Write flags
   LWAVE        =      T    write WAVECAR
   LDOWNSAMPLE  =      F    k-point downsampling of WAVECAR
   LCHARG       =      T    write CHGCAR
   LVTOT        =      F    write LOCPOT, total local potential
   LVHAR        =      F    write LOCPOT, Hartree potential only
   LELF         =      F    write electronic localiz. function (ELF)
   LORBIT       =      0    0 simple, 1 ext, 2 COOP (PROOUT), +10 PAW based schemes


 Dipole corrections
   LMONO  =      F    monopole corrections only (constant potential shift)
   LDIPOL =      F    correct potential (dipole corrections)
   IDIPOL =      0    1-x, 2-y, 3-z, 4-all directions 
   EPSILON=  1.0000000 bulk dielectric constant

 Exchange correlation treatment:
   GGA     =    --    GGA type
   LEXCH   =     8    internal setting for exchange type
   LIBXC   =     F    Libxc                    
   VOSKOWN =     0    Vosko Wilk Nusair interpolation
   LHFCALC =     F    Hartree Fock is set to
   LHFONE  =     F    Hartree Fock one center treatment
   AEXX    =    0.0000 exact exchange contribution

 Linear response parameters
   LEPSILON=     F    determine dielectric tensor
   LRPA    =     F    only Hartree local field effects (RPA)
   LNABLA  =     F    use nabla operator in PAW spheres
   LVEL    =     F    velocity operator in full k-point grid
   CSHIFT  =0.1000    complex shift for real part using Kramers Kronig
   OMEGAMAX=  -1.0    maximum frequency
   DEG_THRESHOLD= 0.2000000E-02 threshold for treating states as degnerate
   RTIME   =   -0.100 relaxation time in fs
  (WPLASMAI=    0.000 imaginary part of plasma frequency in eV, 0.658/RTIME)
   DFIELD  = 0.0000000 0.0000000 0.0000000 field for delta impulse in time
 
  Optional k-point grid parameters
   LKPOINTS_OPT  =     F    use optional k-point grid
   KPOINTS_OPT_MODE=     1    mode for optional k-point grid
 
 Orbital magnetization related:
   ORBITALMAG=     F  switch on orbital magnetization
   LCHIMAG   =     F  perturbation theory with respect to B field
   DQ        =  0.001000  dq finite difference perturbation B field
   LLRAUG    =     F  two centre corrections for induced B field



--------------------------------------------------------------------------------------------------------


 conjugate gradient relaxation of ions
 charge density and potential will be updated during run
 non-spin polarized calculation
 Variant of blocked Davidson
 Davidson routine will perform the subspace rotation
 perform sub-space diagonalisation
    after iterative eigenvector-optimisation
 modified Broyden-mixing scheme, WC =      100.0
 initial mixing is a Kerker type mixing with AMIX =  0.4000 and BMIX =      1.0000
 Hartree-type preconditioning will be used
 using additional bands            6
 real space projection scheme for non local part
 use partial core corrections
 calculate Harris-corrections to forces 
   (improved forces if not selfconsistent)
 use gradient corrections 
 use of overlap-Matrix (Vanderbilt PP)
 Gauss-broadening in eV      SIGMA  =   0.05


--------------------------------------------------------------------------------------------------------


  energy-cutoff  :      520.00
  volume of cell :       14.83
      direct lattice vectors                 reciprocal lattice vectors
     1.950000000  1.950000000  0.000000000     0.256410256  0.256410256 -0.256410256
     0.000000000  1.950000000  1.950000000    -0.256410256  0.256410256  0.256410256
     1.950000000  0.000000000  1.950000000     0.256410256 -0.256410256  0.256410256

  length of vectors
     2.757716447  2.757716447  2.757716447     0.444115592  0.444115592  0.444115592


 
 k-points in units of 2pi/SCALE and weight: read from INCAR                         
   0.00000000  0.00000000  0.00000000       0.000
   0.03571429  0.03571429 -0.03571429       0.000
   0.07142857  0.07142857 -0.07142857       0.000
   0.10714286  0.10714286 -0.10714286       0.000
   0.14285714  0.14285714 -0.14285714       0.000
   0.17857143  0.17857143 -0.17857143       0.000
   0.21428571  0.21428571 -0.21428571       0.000
   0.25000000  0.25000000 -0.25000000       0.000
   0.28571429  0.28571429 -0.28571429       0.000
   0.32142857  0.32142857 -0.32142857       0.000
   0.35714286  0.35714286 -0.35714286       0.000
   0.39285714  0.39285714 -0.39285714       0.000
   0.42857143  0.42857143 -0.42857143       0.000
   0.46428571  0.46428571 -0.46428571       0.000
   0.50000000  0.50000000 -0.50000000       0.000
   0.00000000  0.07142857 -0.00000000       0.000
   0.03571429  0.10714286 -0.03571429       0.001
   0.07142857  0.14285714 -0.07142857       0.001
   0.10714286  0.17857143 -0.10714286       0.001
   0.14285714  0.21428571 -0.14285714       0.001
   0.17857143  0.25000000 -0.17857143       0.001
   0.21428571  0.28571429 -0.21428571       0.001
   0.25000000  0.32142857 -0.25000000       0.001
   0.28571429  0.35714286 -0.28571429       0.001
   0.32142857  0.39285714 -0.32142857       0.001
   0.35714286  0.42857143 -0.35714286       0.001
   0.39285714  0.46428571 -0.39285714       0.001
   0.42857143  0.50000000 -0.42857143       0.001
   0.46428571  0.53571429 -0.46428571       0.001
  -0.50000000 -0.42857143  0.50000000       0.001
  -0.46428571 -0.39285714  0.46428571       0.001
  -0.42857143 -0.35714286  0.42857143       0.001
  -0.39285714 -0.32142857  0.39285714       0.001
  -0.35714286 -0.28571429  0.35714286       0.001
  -0.32142857 -0.25000000  0.32142857       0.001
  -0.28571429 -0.21428571  0.28571429       0.001
  -0.25000000 -0.17857143  0.25000000       0.001
  -0.21428571 -0.14285714  0.21428571       0.001
  -0.17857143 -0.10714286  0.17857143       0.001
  -0.14285714 -0.07142857  0.14285714       0.001
  -0.10714286 -0.03571429  0.10714286       0.001
  -0.07142857  0.00000000  0.07142857       0.001
   0.00000000  0.14285714 -0.00000000       0.000
   0.03571429  0.17857143 -0.03571429       0.001
   0.07142857  0.21428571 -0.07142857       0.001
   0.10714286  0.25000000 -0.10714286       0.001
   0.14285714  0.28571429 -0.14285714       0.001
   0.17857143  0.32142857 -0.17857143       0.001
   0.21428571  0.35714286 -0.21428571       0.001
   0.25000000  0.39285714 -0.25000000       0.001
   0.28571429  0.42857143 -0.28571429       0.001
   0.32142857  0.46428571 -0.32142857       0.001
   0.35714286  0.50000000 -0.35714286       0.001
   0.39285714  0.53571429 -0.39285714       0.001
   0.42857143  0.57142857 -0.42857143       0.001
  -0.53571429 -0.39285714  0.53571429       0.001
  -0.50000000 -0.35714286  0.50000000       0.001
  -0.46428571 -0.32142857  0.46428571       0.001
  -0.42857143 -0.28571429  0.42857143       0.001
  -0.39285714 -0.25000000  0.39285714       0.001
[...]
      3       8.1137      2.00000
      4      10.5939      0.00000
      5      20.8792      0.00000
      6      23.3742      0.00000
      7      28.2734      0.00000
      8      30.4632      0.00000

 k-point   590 :      -0.3214    0.4286    0.1429
  band No.  band energies     occupation 
      1       5.9525      2.00000
      2       6.6784      2.00000
      3       7.6888      2.00000
      4      10.8244      0.00000
      5      21.1608      0.00000
      6      24.6568      0.00000
      7      27.8777      0.00000
      8      29.2495      0.00000

 k-point   591 :      -0.2857    0.4286    0.1429
  band No.  band energies     occupation 
      1       5.7063      2.00000
      2       6.6855      2.00000
      3       7.6506      2.00000
      4      11.1414      0.00000
      5      21.4796      0.00000
      6      25.8386      0.00000
      7      27.2240      0.00000
      8      28.4860      0.00000

 k-point   592 :      -0.3929    0.4643    0.1429
  band No.  band energies     occupation 
      1       4.6457      2.00000
      2       7.3964      2.00000
      3       9.5184      2.00000
      4      10.5158      0.00000
      5      19.9689      0.00000
      6      21.1203      0.00000
      7      30.0335      0.00000
      8      32.0416      0.00000

 k-point   593 :      -0.3571    0.4643    0.1429
  band No.  band energies     occupation 
      1       5.4248      2.00000
      2       6.9598      2.00000
      3       8.7472      2.00000
      4      10.3731      0.00000
      5      20.5067      0.00000
      6      22.0795      0.00000
      7      29.6297      0.00000
      8      30.7719      0.00000

 k-point   594 :      -0.3214    0.4643    0.1429
  band No.  band energies     occupation 
      1       6.0337      2.00000
      2       6.7726      2.00000
      3       7.8467      2.00000
      4      10.5398      0.00000
      5      20.8370      0.00000
      6      23.3424      0.00000
      7      29.0200      0.00000
      8      29.7028      0.00000

 k-point   595 :      -0.3571    0.5000    0.1429
  band No.  band energies     occupation 
      1       5.5679      2.00000
      2       6.3978      2.00000
      3       9.4721      2.00000
      4      10.4615      0.00000
      5      19.9238      0.00000
      6      21.0814      0.00000
      7      30.9083      0.00000
      8      31.1877      0.00000

 k-point   596 :      -0.4643    0.3571    0.1786
  band No.  band energies     occupation 
      1       1.8215      2.00000
      2       9.3332      2.00000
      3      10.1888      1.42826
      4      12.4887      0.00000
      5      22.3065      0.00000
      6      22.9223      0.00000
      7      25.6217      0.00000
      8      32.8277      0.00000

 k-point   597 :      -0.4286    0.3571    0.1786
  band No.  band energies     occupation 
      1       2.5743      2.00000
      2       8.4276      2.00000
      3       9.9655      2.00000
      4      11.9418      0.00000
      5      22.6244      0.00000
      6      23.6389      0.00000
      7      25.4110      0.00000
      8      31.9485      0.00000

 k-point   598 :      -0.3929    0.3571    0.1786
  band No.  band energies     occupation 
      1       3.3919      2.00000
      2       7.3475      2.00000
      3      10.0293      2.00000
      4      11.4773      0.00000
      5      22.7312      0.00000
      6      24.0863      0.00000
      7      25.8148      0.00000
      8      30.8610      0.00000

 k-point   599 :      -0.3571    0.3571    0.1786
  band No.  band energies     occupation 
      1       4.2645      2.00000
      2       6.3001      2.00000
      3      10.1614      1.81958
      4      11.1209      0.00000
      5      22.8145      0.00000
      6      24.0643      0.00000
      7      26.7935      0.00000
      8      29.7091      0.00000

 k-point   600 :      -0.3214    0.3571    0.1786
  band No.  band energies     occupation 
      1       4.9898      2.00000
      2       5.5150      2.00000
      3      10.2437      0.32372
      4      10.9653      0.00000
      5      22.8504      0.00000
      6      24.0161      0.00000
      7      27.5154      0.00000
      8      28.9564      0.00000

 k-point   601 :      -0.4286    0.3929    0.1786
  band No.  band energies     occupation 
      1       2.8249      2.00000
      2       9.0089      2.00000
      3       9.7677      2.00000
      4      11.0082      0.00000
      5      22.0002      0.00000
      6      22.7639      0.00000
      7      26.3971      0.00000
      8      32.3142      0.00000

 k-point   602 :      -0.3929    0.3929    0.1786
  band No.  band energies     occupation 
      1       3.6180      2.00000
      2       8.1421      2.00000
      3       9.5613      2.00000
      4      10.5377      0.00000
      5      22.4096      0.00000
      6      23.6276      0.00000
      7      26.0689      0.00000
      8      31.1700      0.00000

 k-point   603 :      -0.3571    0.3929    0.1786
  band No.  band energies     occupation 
      1       4.4706      2.00000
      2       7.1103      2.00000
      3       9.5143      2.00000
      4      10.2754      0.05954
      5      22.6164      0.00000
      6      24.5221      0.00000
      7      26.0255      0.00000
      8      29.9372      0.00000

 k-point   604 :      -0.3214    0.3929    0.1786
  band No.  band energies     occupation 
      1       5.3370      2.00000
      2       6.1496      2.00000
      3       9.3398      2.00000
      4      10.3208      0.00153
      5      22.8278      0.00000
      6      24.7813      0.00000
      7      26.5924      0.00000
      8      28.8190      0.00000

 k-point   605 :      -0.2857    0.3929    0.1786
  band No.  band energies     occupation 
      1       5.0614      2.00000
      2       6.4354      2.00000
      3       9.1177      2.00000
      4      10.5759      0.00000
      5      23.0563      0.00000
      6      24.6593      0.00000
      7      26.6694      0.00000
      8      28.6749      0.00000

 k-point   606 :      -0.2500    0.3929    0.1786
  band No.  band energies     occupation 
      1       4.1813      2.00000
      2       7.4081      2.00000
      3       8.9639      2.00000
      4      10.9466      0.00000
      5      23.2803      0.00000
      6      24.3901      0.00000
      7      25.8362      0.00000
      8      29.7086      0.00000

 k-point   607 :      -0.2143    0.3929    0.1786
  band No.  band energies     occupation 
      1       3.3464      2.00000
      2       8.2200      2.00000
      3       9.1031      2.00000
      4      11.4044      0.00000
      5      23.4355      0.00000
      6      23.7468      0.00000
      7      25.3578      0.00000
      8      30.9066      0.00000

 k-point   608 :      -0.3929    0.4286    0.1786
  band No.  band energies     occupation 
      1       3.9122      2.00000
      2       8.7772      2.00000
      3       9.0118      2.00000
      4      10.0291      2.00000
      5      21.7798      0.00000
      6      22.6255      0.00000
      7      27.2887      0.00000
      8      31.4549      0.00000

 k-point   609 :      -0.3571    0.4286    0.1786
  band No.  band energies     occupation 
      1       4.7390      2.00000
      2       7.9234      2.00000
      3       8.7023      2.00000
      4       9.7899      2.00000
      5      22.2533      0.00000
      6      23.5683      0.00000
      7      26.9207      0.00000
      8      30.1873      0.00000

 k-point   610 :      -0.3214    0.4286    0.1786
  band No.  band energies     occupation 
      1       5.6073      2.00000
      2       6.9532      2.00000
      3       8.3951      2.00000
      4       9.8868      2.00000
      5      22.5223      0.00000
      6      24.7077      0.00000
      7      26.6148      0.00000
      8      28.9609      0.00000

 k-point   611 :      -0.2857    0.4286    0.1786
  band No.  band energies     occupation 
      1       5.9021      2.00000
      2       6.6030      2.00000
      3       8.1473      2.00000
      4      10.1434      1.93553
      5      22.7940      0.00000
      6      25.5351      0.00000
      7      26.3199      0.00000
      8      28.1645      0.00000

 k-point   612 :      -0.2500    0.4286    0.1786
  band No.  band energies     occupation 
      1       5.0304      2.00000
      2       7.2905      2.00000
      3       8.1927      2.00000
      4      10.5018      0.00000
      5      23.0797      0.00000
      6      25.3509      0.00000
      7      25.9316      0.00000
      8      28.5962      0.00000

 k-point   613 :      -0.3571    0.4643    0.1786
  band No.  band energies     occupation 
      1       5.0653      2.00000
      2       7.7669      2.00000
      3       8.6381      2.00000
      4       9.7299      2.00000
      5      21.6471      0.00000
      6      22.5351      0.00000
      7      28.2448      0.00000
      8      30.4662      0.00000

 k-point   614 :      -0.3214    0.4643    0.1786
  band No.  band energies     occupation 
      1       5.8859      2.00000
      2       7.3258      2.00000
      3       7.9796      2.00000
      4       9.6099      2.00000
      5      22.1729      0.00000
      6      23.5272      0.00000
      7      27.8010      0.00000
      8      29.2296      0.00000

 k-point   615 :      -0.2857    0.4643    0.1786
  band No.  band energies     occupation 
      1       6.5459      2.00000
      2       6.7429      2.00000
      3       7.5663      2.00000
      4       9.8109      2.00000
      5      22.4885      0.00000
      6      24.7426      0.00000
      7      27.1041      0.00000
      8      28.3642      0.00000

 k-point   616 :      -0.3214    0.5000    0.1786
  band No.  band energies     occupation 
      1       5.9871      2.00000
      2       6.7862      2.00000
      3       8.5917      2.00000
      4       9.6582      2.00000
      5      21.6028      0.00000
      6      22.5039      0.00000
      7      28.9824      0.00000
      8      29.7102      0.00000

 k-point   617 :      -0.3571    0.4286    0.2143
  band No.  band energies     occupation 
      1       4.4278      2.00000
      2       7.9879      2.00000
      3       8.7657      2.00000
      4      10.0162      2.00000
      5      23.5319      0.00000
      6      23.7281      0.00000
      7      25.8116      0.00000
      8      29.9344      0.00000

 k-point   618 :      -0.3214    0.4286    0.2143
  band No.  band energies     occupation 
      1       5.2918      2.00000
      2       7.2178      2.00000
      3       8.6428      2.00000
      4       9.6464      2.00000
      5      23.7164      0.00000
      6      24.5069      0.00000
      7      25.8490      0.00000
      8      28.7363      0.00000

 k-point   619 :      -0.2857    0.4286    0.2143
  band No.  band energies     occupation 
      1       6.0351      2.00000
      2       6.4497      2.00000
      3       8.6865      2.00000
      4       9.4944      2.00000
      5      23.7433      0.00000
      6      24.7740      0.00000
      7      26.1469      0.00000
      8      28.0739      0.00000

 k-point   620 :      -0.3214    0.4643    0.2143
  band No.  band energies     occupation 
      1       5.5731      2.00000
      2       7.8486      2.00000
      3       8.0890      2.00000
      4       9.1583      2.00000
      5      23.4022      0.00000
      6      23.8208      0.00000
      7      26.5351      0.00000
      8      28.9370      0.00000

 k-point   621 :      -0.2857    0.4643    0.2143
  band No.  band energies     occupation 
      1       6.4198      2.00000
      2       7.0927      2.00000
      3       7.9061      2.00000
      4       9.0282      2.00000
      5      23.7909      0.00000
      6      24.7651      0.00000
      7      26.0631      0.00000
      8      27.9668      0.00000

 k-point   622 :      -0.2500    0.4643    0.2143
  band No.  band energies     occupation 
      1       6.1580      2.00000
      2       7.1510      2.00000
      3       7.9425      2.00000
      4       9.2388      2.00000
      5      23.9589      0.00000
      6      25.2253      0.00000
      7      25.5673      0.00000
      8      27.8735      0.00000

 k-point   623 :      -0.2857    0.5000    0.2143
  band No.  band energies     occupation 
      1       6.4994      2.00000
      2       7.2039      2.00000
      3       7.8021      2.00000
      4       8.9869      2.00000
      5      23.3588      0.00000
      6      23.8373      0.00000
      7      27.0640      0.00000
      8      28.3250      0.00000

 k-point   624 :      -0.2500    0.5000    0.2500
  band No.  band energies     occupation 
      1       7.1045      2.00000
      2       7.1045      2.00000
      3       7.4459      2.00000
      4       8.6597      2.00000
      5      24.5472      0.00000
      6      25.1833      0.00000
      7      25.1833      0.00000
      8      27.5948      0.00000


--------------------------------------------------------------------------------------------------------


 soft charge-density along one line, spin component           1
         0         1         2         3         4         5         6         7         8         9
 total charge-density along one line
 
 pseudopotential strength for first ion, spin component:           1
 17.966  -0.003   0.000   0.000  -0.000   0.000  -0.000   0.000
 -0.003   0.005   0.000  -0.000   0.000   0.000   0.000  -0.000
  0.000   0.000   4.096  -0.000  -0.000  -0.006   0.000   0.000
  0.000  -0.000  -0.000   4.096  -0.000   0.000  -0.006   0.000
 -0.000   0.000  -0.000  -0.000   4.096   0.000   0.000  -0.006
  0.000   0.000  -0.006   0.000   0.000   0.005  -0.000  -0.000
 -0.000   0.000   0.000  -0.006   0.000  -0.000   0.005  -0.000
  0.000  -0.000   0.000   0.000  -0.006  -0.000  -0.000   0.005
 total augmentation occupancy for first ion, spin component:           1
  1.750  -0.173   0.000   0.000   0.000   0.000   0.000   0.000
 -0.173   1.121   0.000   0.000   0.000   0.000   0.000   0.000
  0.000   0.000   0.764   0.000   0.000  -0.421  -0.000   0.000
  0.000   0.000   0.000   0.764  -0.000  -0.000  -0.421   0.000
  0.000   0.000   0.000  -0.000   0.764   0.000   0.000  -0.421
  0.000   0.000  -0.421  -0.000   0.000   0.326   0.000   0.000
  0.000   0.000  -0.000  -0.421   0.000   0.000   0.326   0.000
  0.000   0.000   0.000   0.000  -0.421  -0.000   0.000   0.326


------------------------ aborting loop because EDIFF is reached ----------------------------------------


    CHARGE:  cpu time      0.0101: real time      0.0101
    FORLOC:  cpu time      0.0001: real time      0.0001
    FORNL :  cpu time      0.1262: real time      0.1263
    STRESS:  cpu time      0.3739: real time      0.3740
    FORCOR:  cpu time      0.0015: real time      0.0015
    FORHAR:  cpu time      0.0005: real time      0.0020
    MIXING:  cpu time      0.0002: real time      0.0002
    OFIELD:  cpu time      0.0000: real time      0.0025

  FORCE on cell =-STRESS in cart. coord.  units (eV):
  Direction    XX          YY          ZZ          XY          YZ          ZX
  --------------------------------------------------------------------------------------
  Alpha Z     2.32868     2.32868     2.32868
  Ewald     -45.52846   -45.52846   -45.52846     0.00000    -0.00000    -0.00000
  Hartree     0.14850     0.14850     0.14850     0.00000     0.00000     0.00000
  E(xc)     -12.69857   -12.69857   -12.69857    -0.00000    -0.00000    -0.00000
  Local      -4.95868    -4.95868    -4.95868     0.00001     0.00001     0.00001
  n-local    39.02719    36.90174    39.24897    -0.73555     0.67558     1.14058
  augment    -6.29577    -6.29577    -6.29577    -0.00001    -0.00001    -0.00001
  Kinetic    21.02738    40.26398    24.54252    10.15348    -8.70839   -16.57744
  Fock        0.00000     0.00000     0.00000     0.00000     0.00000     0.00000
  -------------------------------------------------------------------------------------
  Total      -0.00037    -0.00037    -0.00037     0.00000     0.00000     0.00000
  in kB      -0.04114    -0.04114    -0.04114     0.00000     0.00000     0.00000
  external pressure =       -0.04 kB  Pullay stress =        0.00 kB


 VOLUME and BASIS-vectors are now :
 -----------------------------------------------------------------------------
  energy-cutoff  :      520.00
  volume of cell :       14.46
      direct lattice vectors                 reciprocal lattice vectors
     1.933473300  1.933473300 -0.000000000     0.258601968  0.258601968 -0.258601968
    -0.000000000  1.933473300  1.933473300    -0.258601968  0.258601968  0.258601968
     1.933473300  0.000000000  1.933473300     0.258601968 -0.258601968  0.258601968

  length of vectors
     2.734344164  2.734344164  2.734344164     0.447911747  0.447911747  0.447911747


 FORCES acting on ions
    electron-ion (+dipol)            ewald-force                    non-local-force                 convergence-correction
 -----------------------------------------------------------------------------------------------
   -.120E-14 -.259E-15 0.144E-14   0.619E-15 -.148E-15 -.269E-16   0.218E-27 0.151E-27 -.223E-27   0.171E-16 0.163E-16 -.497E-17
 -----------------------------------------------------------------------------------------------
   -.120E-14 -.259E-15 0.144E-14   0.619E-15 -.148E-15 -.269E-16   0.218E-27 0.151E-27 -.223E-27   0.171E-16 0.163E-16 -.497E-17
 
 
 POSITION                                       TOTAL-FORCE (eV/Angst)
 -----------------------------------------------------------------------------------
     -0.00000     -0.00000     -0.00000        -0.000000     -0.000000     -0.000000
 -----------------------------------------------------------------------------------
    total drift:                               -0.000000     -0.000000      0.000000


--------------------------------------------------------------------------------------------------------



  FREE ENERGIE OF THE ION-ELECTRON SYSTEM (eV)
  ---------------------------------------------------
  free  energy   TOTEN  =        -4.88996313 eV

  energy  without entropy=       -4.88948345  energy(sigma->0) =       -4.88972329
 
 d Force = 0.0000000E+00[ 0.000E+00, 0.000E+00]  d Energy = 0.1634097E-04-0.163E-04
 d Force = 0.0000000E+00[ 0.000E+00, 0.000E+00]  d Ewald  = 0.9906018E-01-0.991E-01


--------------------------------------------------------------------------------------------------------


    POTLOK:  cpu time      0.0024: real time      0.0024


--------------------------------------------------------------------------------------------------------




--------------------------------------------------------------------------------------------------------


  
 reached required accuracy - stopping structural energy minimisation
 writing wavefunctions
     LOOP+:  cpu time      3.2173: real time      3.8527
    4ORBIT:  cpu time      0.0000: real time      0.0000

 total amount of memory used by VASP MPI-rank0    34893. kBytes
=======================================================================

   base      :      30000. kBytes
   nonlr-proj:        125. kBytes
   fftplans  :        160. kBytes
   grid      :        372. kBytes
   one-center:          3. kBytes
   wavefun   :       4233. kBytes
 
  
  
 General timing and accounting informations for this job:
 ========================================================
  
                  Total CPU time used (sec):       15.265
                            User time (sec):       14.929
                          System time (sec):        0.336
                         Elapsed time (sec):       19.838
  
                   Maximum memory used (kb):      136428.
                   Average memory used (kb):          N/A
  
                          Minor page faults:         9669
                          Major page faults:         4716
                 Voluntary context switches:         2035
