<?xml version="1.0" encoding="ISO-8859-1"?>
<modeling>
 <generator>
  <i name="program" type="string">vasp </i>
  <i name="version" type="string">6.3.2  </i>
  <i name="subversion" type="string">27Jun22 (build Dec 02 2024 22:47:12) complex                          parallel </i>
  <i name="platform" type="string">LinuxIFC </i>
  <i name="date" type="string">2024 12 20 </i>
  <i name="time" type="string">11:35:03 </i>
 </generator>
 <incar>
  <i type="string" name="SYSTEM">DFT Groundstate Calculation</i>
  <i type="int" name="IBRION">     2</i>
  <i name="EDIFF">      0.00000001</i>
  <i type="int" name="NSW">    50</i>
  <i type="int" name="ISIF">     3</i>
  <i name="ENCUT">    520.00000000</i>
  <i type="string" name="LREAL">Auto</i>
  <i type="int" name="ISMEAR">     0</i>
  <i name="SIGMA">      0.05000000</i>
  <i name="KSPACING">      0.10000000</i>
 </incar>
 <primitive_cell>
  <structure name="primitive_cell" >
   <crystal>
    <varray name="basis" >
     <v>       1.95000000       1.95000000       0.00000000 </v>
     <v>       0.00000000       1.95000000       1.95000000 </v>
     <v>       1.95000000       0.00000000       1.95000000 </v>
    </varray>
    <i name="volume">     14.82975000 </i>
    <varray name="rec_basis" >
     <v>       0.25641026       0.25641026      -0.25641026 </v>
     <v>      -0.25641026       0.25641026       0.25641026 </v>
     <v>       0.25641026      -0.25641026       0.25641026 </v>
    </varray>
   </crystal>
   <varray name="positions" >
    <v>       0.00000000       0.00000000       0.00000000 </v>
   </varray>
  </structure>
  <varray name="primitive_index" >
   <v type="int" >        1 </v>
  </varray>
 </primitive_cell>
 <kpoints>
  <generation param="Gamma">
   <v type="int" name="divisions">      28       28       28 </v>
   <v name="usershift">      0.00000000       0.00000000       0.00000000 </v>
   <v name="genvec1">      0.03571429      -0.00000000      -0.00000000 </v>
   <v name="genvec2">     -0.00000000       0.03571429       0.00000000 </v>
   <v name="genvec3">      0.00000000       0.00000000       0.03571429 </v>
   <v name="shift">      0.00000000       0.00000000       0.00000000 </v>
  </generation>
  <varray name="kpointlist" >
   <v>       0.00000000       0.00000000       0.00000000 </v>
   <v>       0.03571429       0.00000000      -0.00000000 </v>
   <v>       0.07142857      -0.00000000       0.00000000 </v>
   <v>       0.10714286      -0.00000000      -0.00000000 </v>
   <v>       0.14285714       0.00000000       0.00000000 </v>
   <v>       0.17857143      -0.00000000      -0.00000000 </v>
   <v>       0.21428571       0.00000000       0.00000000 </v>
   <v>       0.25000000      -0.00000000       0.00000000 </v>
   <v>       0.28571429       0.00000000      -0.00000000 </v>
   <v>       0.32142857       0.00000000       0.00000000 </v>
   <v>       0.35714286      -0.00000000      -0.00000000 </v>
   <v>       0.39285714       0.00000000       0.00000000 </v>
   <v>       0.42857143       0.00000000      -0.00000000 </v>
   <v>       0.46428571       0.00000000       0.00000000 </v>
   <v>       0.50000000      -0.00000000       0.00000000 </v>
   <v>       0.03571429       0.03571429       0.00000000 </v>
   <v>       0.07142857       0.03571429      -0.00000000 </v>
   <v>       0.10714286       0.03571429       0.00000000 </v>
   <v>       0.14285714       0.03571429      -0.00000000 </v>
   <v>       0.17857143       0.03571429       0.00000000 </v>
   <v>       0.21428571       0.03571429      -0.00000000 </v>
   <v>       0.25000000       0.03571429       0.00000000 </v>
   <v>       0.28571429       0.03571429       0.00000000 </v>
   <v>       0.32142857       0.03571429      -0.00000000 </v>
   <v>       0.35714286       0.03571429       0.00000000 </v>
   <v>       0.39285714       0.03571429      -0.00000000 </v>
   <v>       0.42857143       0.03571429       0.00000000 </v>
   <v>       0.46428571       0.03571429      -0.00000000 </v>
   <v>       0.50000000       0.03571429       0.00000000 </v>
   <v>      -0.46428571       0.03571429      -0.00000000 </v>
   <v>      -0.42857143       0.03571429      -0.00000000 </v>
   <v>      -0.39285714       0.03571429       0.00000000 </v>
   <v>      -0.35714286       0.03571429      -0.00000000 </v>
   <v>      -0.32142857       0.03571429       0.00000000 </v>
   <v>      -0.28571429       0.03571429      -0.00000000 </v>
   <v>      -0.25000000       0.03571429       0.00000000 </v>
   <v>      -0.21428571       0.03571429      -0.00000000 </v>
   <v>      -0.17857143       0.03571429      -0.00000000 </v>
   <v>      -0.14285714       0.03571429       0.00000000 </v>
   <v>      -0.10714286       0.03571429      -0.00000000 </v>
   <v>      -0.07142857       0.03571429       0.00000000 </v>
   <v>      -0.03571429       0.03571429      -0.00000000 </v>
   <v>       0.07142857       0.07142857       0.00000000 </v>
   <v>       0.10714286       0.07142857      -0.00000000 </v>
   <v>       0.14285714       0.07142857       0.00000000 </v>
   <v>       0.17857143       0.07142857      -0.00000000 </v>
   <v>       0.21428571       0.07142857       0.00000000 </v>
   <v>       0.25000000       0.07142857      -0.00000000 </v>
   <v>       0.28571429       0.07142857       0.00000000 </v>
   <v>       0.32142857       0.07142857       0.00000000 </v>
   <v>       0.35714286       0.07142857      -0.00000000 </v>
   <v>       0.39285714       0.07142857       0.00000000 </v>
   <v>       0.42857143       0.07142857      -0.00000000 </v>
   <v>       0.46428571       0.07142857       0.00000000 </v>
   <v>       0.50000000       0.07142857      -0.00000000 </v>
   <v>      -0.46428571       0.07142857       0.00000000 </v>
   <v>      -0.42857143       0.07142857      -0.00000000 </v>
   <v>      -0.39285714       0.07142857      -0.00000000 </v>
   <v>      -0.35714286       0.07142857       0.00000000 </v>
   <v>      -0.32142857       0.07142857      -0.00000000 </v>
   <v>      -0.28571429       0.07142857       0.00000000 </v>
   <v>      -0.25000000       0.07142857      -0.00000000 </v>
   <v>      -0.21428571       0.07142857       0.00000000 </v>
   <v>      -0.17857143       0.07142857      -0.00000000 </v>
   <v>      -0.14285714       0.07142857      -0.00000000 </v>
   <v>      -0.10714286       0.07142857       0.00000000 </v>
   <v>      -0.07142857       0.07142857      -0.00000000 </v>
   <v>       0.10714286       0.10714286       0.00000000 </v>
   <v>       0.14285714       0.10714286      -0.00000000 </v>
   <v>       0.17857143       0.10714286       0.00000000 </v>
   <v>       0.21428571       0.10714286      -0.00000000 </v>
   <v>       0.25000000       0.10714286       0.00000000 </v>
   <v>       0.28571429       0.10714286      -0.00000000 </v>
   <v>       0.32142857       0.10714286       0.00000000 </v>
   <v>       0.35714286       0.10714286       0.00000000 </v>
   <v>       0.39285714       0.10714286      -0.00000000 </v>
   <v>       0.42857143       0.10714286       0.00000000 </v>
   <v>       0.46428571       0.10714286      -0.00000000 </v>
   <v>       0.50000000       0.10714286       0.00000000 </v>
   <v>      -0.46428571       0.10714286      -0.00000000 </v>
   <v>      -0.42857143       0.10714286       0.00000000 </v>
   <v>      -0.39285714       0.10714286      -0.00000000 </v>
   <v>      -0.35714286       0.10714286      -0.00000000 </v>
   <v>      -0.32142857       0.10714286       0.00000000 </v>
   <v>      -0.28571429       0.10714286      -0.00000000 </v>
   <v>      -0.25000000       0.10714286       0.00000000 </v>
   <v>      -0.21428571       0.10714286      -0.00000000 </v>
   <v>      -0.17857143       0.10714286       0.00000000 </v>
   <v>      -0.14285714       0.10714286      -0.00000000 </v>
   <v>      -0.10714286       0.10714286      -0.00000000 </v>
   <v>       0.14285714       0.14285714       0.00000000 </v>
   <v>       0.17857143       0.14285714      -0.00000000 </v>
   <v>       0.21428571       0.14285714       0.00000000 </v>
   <v>       0.25000000       0.14285714      -0.00000000 </v>
   <v>       0.28571429       0.14285714       0.00000000 </v>
   <v>       0.32142857       0.14285714      -0.00000000 </v>
   <v>       0.35714286       0.14285714       0.00000000 </v>
   <v>       0.39285714       0.14285714       0.00000000 </v>
   <v>       0.42857143       0.14285714      -0.00000000 </v>
   <v>       0.46428571       0.14285714       0.00000000 </v>
   <v>       0.50000000       0.14285714      -0.00000000 </v>
   <v>      -0.46428571       0.14285714       0.00000000 </v>
   <v>      -0.42857143       0.14285714      -0.00000000 </v>
   <v>      -0.39285714       0.14285714       0.00000000 </v>
   <v>      -0.35714286       0.14285714      -0.00000000 </v>
   <v>      -0.32142857       0.14285714      -0.00000000 </v>
   <v>      -0.28571429       0.14285714       0.00000000 </v>
   <v>      -0.25000000       0.14285714      -0.00000000 </v>
   <v>      -0.21428571       0.14285714       0.00000000 </v>
   <v>      -0.17857143       0.14285714      -0.00000000 </v>
   <v>      -0.14285714       0.14285714       0.00000000 </v>
   <v>       0.17857143       0.17857143       0.00000000 </v>
   <v>       0.21428571       0.17857143      -0.00000000 </v>
   <v>       0.25000000       0.17857143       0.00000000 </v>
   <v>       0.28571429       0.17857143      -0.00000000 </v>
   <v>       0.32142857       0.17857143       0.00000000 </v>
   <v>       0.35714286       0.17857143      -0.00000000 </v>
   <v>       0.39285714       0.17857143       0.00000000 </v>
   <v>       0.42857143       0.17857143       0.00000000 </v>
   <v>       0.46428571       0.17857143      -0.00000000 </v>
   <v>       0.50000000       0.17857143       0.00000000 </v>
   <v>      -0.46428571       0.17857143      -0.00000000 </v>
   <v>      -0.42857143       0.17857143       0.00000000 </v>
   <v>      -0.39285714       0.17857143      -0.00000000 </v>
   <v>      -0.35714286       0.17857143       0.00000000 </v>
   <v>      -0.32142857       0.17857143      -0.00000000 </v>
   <v>      -0.28571429       0.17857143      -0.00000000 </v>
   <v>      -0.25000000       0.17857143       0.00000000 </v>
   <v>      -0.21428571       0.17857143      -0.00000000 </v>
   <v>      -0.17857143       0.17857143       0.00000000 </v>
   <v>       0.21428571       0.21428571       0.00000000 </v>
   <v>       0.25000000       0.21428571      -0.00000000 </v>
   <v>       0.28571429       0.21428571       0.00000000 </v>
   <v>       0.32142857       0.21428571      -0.00000000 </v>
   <v>       0.35714286       0.21428571       0.00000000 </v>
   <v>       0.39285714       0.21428571      -0.00000000 </v>
   <v>       0.42857143       0.21428571       0.00000000 </v>
   <v>       0.46428571       0.21428571       0.00000000 </v>
   <v>       0.50000000       0.21428571      -0.00000000 </v>
   <v>      -0.46428571       0.21428571       0.00000000 </v>
   <v>      -0.42857143       0.21428571      -0.00000000 </v>
   <v>      -0.39285714       0.21428571       0.00000000 </v>
   <v>      -0.35714286       0.21428571      -0.00000000 </v>
   <v>      -0.32142857       0.21428571       0.00000000 </v>
   <v>      -0.28571429       0.21428571      -0.00000000 </v>
   <v>      -0.25000000       0.21428571      -0.00000000 </v>
   <v>      -0.21428571       0.21428571       0.00000000 </v>
   <v>       0.25000000       0.25000000       0.00000000 </v>
   <v>       0.28571429       0.25000000      -0.00000000 </v>
   <v>       0.32142857       0.25000000       0.00000000 </v>
   <v>       0.35714286       0.25000000      -0.00000000 </v>
   <v>       0.39285714       0.25000000       0.00000000 </v>
   <v>       0.42857143       0.25000000      -0.00000000 </v>
   <v>       0.46428571       0.25000000       0.00000000 </v>
   <v>       0.50000000       0.25000000       0.00000000 </v>
   <v>      -0.46428571       0.25000000      -0.00000000 </v>
   <v>      -0.42857143       0.25000000       0.00000000 </v>
   <v>      -0.39285714       0.25000000      -0.00000000 </v>
   <v>      -0.35714286       0.25000000       0.00000000 </v>
   <v>      -0.32142857       0.25000000      -0.00000000 </v>
   <v>      -0.28571429       0.25000000       0.00000000 </v>
   <v>      -0.25000000       0.25000000      -0.00000000 </v>
   <v>       0.28571429       0.28571429       0.00000000 </v>
   <v>       0.32142857       0.28571429      -0.00000000 </v>
   <v>       0.35714286       0.28571429       0.00000000 </v>
   <v>       0.39285714       0.28571429      -0.00000000 </v>
   <v>       0.42857143       0.28571429       0.00000000 </v>
   <v>       0.46428571       0.28571429      -0.00000000 </v>
   <v>       0.50000000       0.28571429       0.00000000 </v>
   <v>      -0.46428571       0.28571429      -0.00000000 </v>
   <v>      -0.42857143       0.28571429      -0.00000000 </v>
   <v>      -0.39285714       0.28571429       0.00000000 </v>
   <v>      -0.35714286       0.28571429      -0.00000000 </v>
   <v>      -0.32142857       0.28571429       0.00000000 </v>
   <v>      -0.28571429       0.28571429      -0.00000000 </v>
   <v>       0.32142857       0.32142857       0.00000000 </v>
   <v>       0.35714286       0.32142857      -0.00000000 </v>
   <v>       0.39285714       0.32142857       0.00000000 </v>
   <v>       0.42857143       0.32142857      -0.00000000 </v>
   <v>       0.46428571       0.32142857       0.00000000 </v>
   <v>       0.50000000       0.32142857      -0.00000000 </v>
   <v>      -0.46428571       0.32142857       0.00000000 </v>
   <v>      -0.42857143       0.32142857      -0.00000000 </v>
   <v>      -0.39285714       0.32142857      -0.00000000 </v>
   <v>      -0.35714286       0.32142857       0.00000000 </v>
   <v>      -0.32142857       0.32142857      -0.00000000 </v>
   <v>       0.35714286       0.35714286       0.00000000 </v>
   <v>       0.39285714       0.35714286      -0.00000000 </v>
   <v>       0.42857143       0.35714286       0.00000000 </v>
   <v>       0.46428571       0.35714286      -0.00000000 </v>
   <v>       0.50000000       0.35714286       0.00000000 </v>
   <v>      -0.46428571       0.35714286      -0.00000000 </v>
   <v>      -0.42857143       0.35714286       0.00000000 </v>
   <v>      -0.39285714       0.35714286      -0.00000000 </v>
   <v>      -0.35714286       0.35714286      -0.00000000 </v>
   <v>       0.39285714       0.39285714       0.00000000 </v>
   <v>       0.42857143       0.39285714      -0.00000000 </v>
   <v>       0.46428571       0.39285714       0.00000000 </v>
   <v>       0.50000000       0.39285714      -0.00000000 </v>
   <v>      -0.46428571       0.39285714       0.00000000 </v>
   <v>      -0.42857143       0.39285714      -0.00000000 </v>
   <v>      -0.39285714       0.39285714       0.00000000 </v>
   <v>       0.42857143       0.42857143       0.00000000 </v>
   <v>       0.46428571       0.42857143      -0.00000000 </v>
   <v>       0.50000000       0.42857143       0.00000000 </v>
   <v>      -0.46428571       0.42857143      -0.00000000 </v>
   <v>      -0.42857143       0.42857143       0.00000000 </v>
   <v>       0.46428571       0.46428571       0.00000000 </v>
   <v>       0.50000000       0.46428571      -0.00000000 </v>
   <v>      -0.46428571       0.46428571       0.00000000 </v>
   <v>       0.50000000       0.50000000       0.00000000 </v>
   <v>       0.10714286       0.07142857       0.03571429 </v>
   <v>       0.14285714       0.07142857       0.03571429 </v>
   <v>       0.17857143       0.07142857       0.03571429 </v>
   <v>       0.21428571       0.07142857       0.03571429 </v>
   <v>       0.25000000       0.07142857       0.03571429 </v>
   <v>       0.28571429       0.07142857       0.03571429 </v>
   <v>       0.32142857       0.07142857       0.03571429 </v>
   <v>       0.35714286       0.07142857       0.03571429 </v>
   <v>       0.39285714       0.07142857       0.03571429 </v>
   <v>       0.42857143       0.07142857       0.03571429 </v>
   <v>       0.46428571       0.07142857       0.03571429 </v>
   <v>       0.50000000       0.07142857       0.03571429 </v>
   <v>      -0.46428571       0.07142857       0.03571429 </v>
   <v>       0.14285714       0.10714286       0.03571429 </v>
   <v>       0.17857143       0.10714286       0.03571429 </v>
   <v>       0.21428571       0.10714286       0.03571429 </v>
   <v>       0.25000000       0.10714286       0.03571429 </v>
   <v>       0.28571429       0.10714286       0.03571429 </v>
   <v>       0.32142857       0.10714286       0.03571429 </v>
   <v>       0.35714286       0.10714286       0.03571429 </v>
   <v>       0.39285714       0.10714286       0.03571429 </v>
   <v>       0.42857143       0.10714286       0.03571429 </v>
   <v>       0.46428571       0.10714286       0.03571429 </v>
   <v>       0.50000000       0.10714286       0.03571429 </v>
   <v>      -0.46428571       0.10714286       0.03571429 </v>
   <v>      -0.42857143       0.10714286       0.03571429 </v>
   <v>      -0.39285714       0.10714286       0.03571429 </v>
   <v>      -0.35714286       0.10714286       0.03571429 </v>
   <v>      -0.32142857       0.10714286       0.03571429 </v>
   <v>      -0.28571429       0.10714286       0.03571429 </v>
   <v>      -0.25000000       0.10714286       0.03571429 </v>
   <v>      -0.21428571       0.10714286       0.03571429 </v>
   <v>      -0.17857143       0.10714286       0.03571429 </v>
   <v>      -0.14285714       0.10714286       0.03571429 </v>
   <v>      -0.10714286       0.10714286       0.03571429 </v>
   <v>      -0.07142857       0.10714286       0.03571429 </v>
   <v>       0.17857143       0.14285714       0.03571429 </v>
   <v>       0.21428571       0.14285714       0.03571429 </v>
   <v>       0.25000000       0.14285714       0.03571429 </v>
   <v>       0.28571429       0.14285714       0.03571429 </v>
   <v>       0.32142857       0.14285714       0.03571429 </v>
   <v>       0.35714286       0.14285714       0.03571429 </v>
   <v>       0.39285714       0.14285714       0.03571429 </v>
   <v>       0.42857143       0.14285714       0.03571429 </v>
   <v>       0.46428571       0.14285714       0.03571429 </v>
   <v>       0.50000000       0.14285714       0.03571429 </v>
   <v>      -0.46428571       0.14285714       0.03571429 </v>
   <v>      -0.42857143       0.14285714       0.03571429 </v>
   <v>      -0.39285714       0.14285714       0.03571429 </v>
   <v>      -0.35714286       0.14285714       0.03571429 </v>
   <v>      -0.32142857       0.14285714       0.03571429 </v>
   <v>      -0.28571429       0.14285714       0.03571429 </v>
   <v>      -0.25000000       0.14285714       0.03571429 </v>
   <v>      -0.21428571       0.14285714       0.03571429 </v>
   <v>      -0.17857143       0.14285714       0.03571429 </v>
   <v>      -0.14285714       0.14285714       0.03571429 </v>
   <v>      -0.10714286       0.14285714       0.03571429 </v>
   <v>       0.21428571       0.17857143       0.03571429 </v>
   <v>       0.25000000       0.17857143       0.03571429 </v>
   <v>       0.28571429       0.17857143       0.03571429 </v>
   <v>       0.32142857       0.17857143       0.03571429 </v>
   <v>       0.35714286       0.17857143       0.03571429 </v>
   <v>       0.39285714       0.17857143       0.03571429 </v>
   <v>       0.42857143       0.17857143       0.03571429 </v>
   <v>       0.46428571       0.17857143       0.03571429 </v>
   <v>       0.50000000       0.17857143       0.03571429 </v>
   <v>      -0.46428571       0.17857143       0.03571429 </v>
   <v>      -0.42857143       0.17857143       0.03571429 </v>
   <v>      -0.39285714       0.17857143       0.03571429 </v>
   <v>      -0.35714286       0.17857143       0.03571429 </v>
   <v>      -0.32142857       0.17857143       0.03571429 </v>
   <v>      -0.28571429       0.17857143       0.03571429 </v>
   <v>      -0.25000000       0.17857143       0.03571429 </v>
   <v>      -0.21428571       0.17857143       0.03571429 </v>
   <v>      -0.17857143       0.17857143       0.03571429 </v>
   <v>      -0.14285714       0.17857143       0.03571429 </v>
   <v>       0.25000000       0.21428571       0.03571429 </v>
   <v>       0.28571429       0.21428571       0.03571429 </v>
   <v>       0.32142857       0.21428571       0.03571429 </v>
   <v>       0.35714286       0.21428571       0.03571429 </v>
   <v>       0.39285714       0.21428571       0.03571429 </v>
   <v>       0.42857143       0.21428571       0.03571429 </v>
   <v>       0.46428571       0.21428571       0.03571429 </v>
   <v>       0.50000000       0.21428571       0.03571429 </v>
   <v>      -0.46428571       0.21428571       0.03571429 </v>
   <v>      -0.42857143       0.21428571       0.03571429 </v>
   <v>      -0.39285714       0.21428571       0.03571429 </v>
   <v>      -0.35714286       0.21428571       0.03571429 </v>
   <v>      -0.32142857       0.21428571       0.03571429 </v>
   <v>      -0.28571429       0.21428571       0.03571429 </v>
   <v>      -0.25000000       0.21428571       0.03571429 </v>
   <v>      -0.21428571       0.21428571       0.03571429 </v>
   <v>      -0.17857143       0.21428571       0.03571429 </v>
   <v>       0.28571429       0.25000000       0.03571429 </v>
   <v>       0.32142857       0.25000000       0.03571429 </v>
   <v>       0.35714286       0.25000000       0.03571429 </v>
   <v>       0.39285714       0.25000000       0.03571429 </v>
   <v>       0.42857143       0.25000000       0.03571429 </v>
   <v>       0.46428571       0.25000000       0.03571429 </v>
   <v>       0.50000000       0.25000000       0.03571429 </v>
   <v>      -0.46428571       0.25000000       0.03571429 </v>
   <v>      -0.42857143       0.25000000       0.03571429 </v>
   <v>      -0.39285714       0.25000000       0.03571429 </v>
   <v>      -0.35714286       0.25000000       0.03571429 </v>
   <v>      -0.32142857       0.25000000       0.03571429 </v>
   <v>      -0.28571429       0.25000000       0.03571429 </v>
   <v>      -0.25000000       0.25000000       0.03571429 </v>
   <v>      -0.21428571       0.25000000       0.03571429 </v>
   <v>       0.32142857       0.28571429       0.03571429 </v>
   <v>       0.35714286       0.28571429       0.03571429 </v>
   <v>       0.39285714       0.28571429       0.03571429 </v>
   <v>       0.42857143       0.28571429       0.03571429 </v>
   <v>       0.46428571       0.28571429       0.03571429 </v>
   <v>       0.50000000       0.28571429       0.03571429 </v>
   <v>      -0.46428571       0.28571429       0.03571429 </v>
   <v>      -0.42857143       0.28571429       0.03571429 </v>
   <v>      -0.39285714       0.28571429       0.03571429 </v>
   <v>      -0.35714286       0.28571429       0.03571429 </v>
   <v>      -0.32142857       0.28571429       0.03571429 </v>
   <v>      -0.28571429       0.28571429       0.03571429 </v>
   <v>      -0.25000000       0.28571429       0.03571429 </v>
   <v>       0.35714286       0.32142857       0.03571429 </v>
   <v>       0.39285714       0.32142857       0.03571429 </v>
   <v>       0.42857143       0.32142857       0.03571429 </v>
   <v>       0.46428571       0.32142857       0.03571429 </v>
   <v>       0.50000000       0.32142857       0.03571429 </v>
   <v>      -0.46428571       0.32142857       0.03571429 </v>
   <v>      -0.42857143       0.32142857       0.03571429 </v>
   <v>      -0.39285714       0.32142857       0.03571429 </v>
   <v>      -0.35714286       0.32142857       0.03571429 </v>
   <v>      -0.32142857       0.32142857       0.03571429 </v>
   <v>      -0.28571429       0.32142857       0.03571429 </v>
   <v>       0.39285714       0.35714286       0.03571429 </v>
   <v>       0.42857143       0.35714286       0.03571429 </v>
   <v>       0.46428571       0.35714286       0.03571429 </v>
   <v>       0.50000000       0.35714286       0.03571429 </v>
   <v>      -0.46428571       0.35714286       0.03571429 </v>
   <v>      -0.42857143       0.35714286       0.03571429 </v>
   <v>      -0.39285714       0.35714286       0.03571429 </v>
   <v>      -0.35714286       0.35714286       0.03571429 </v>
   <v>      -0.32142857       0.35714286       0.03571429 </v>
   <v>       0.42857143       0.39285714       0.03571429 </v>
   <v>       0.46428571       0.39285714       0.03571429 </v>
   <v>       0.50000000       0.39285714       0.03571429 </v>
   <v>      -0.46428571       0.39285714       0.03571429 </v>
   <v>      -0.42857143       0.39285714       0.03571429 </v>
   <v>      -0.39285714       0.39285714       0.03571429 </v>
   <v>      -0.35714286       0.39285714       0.03571429 </v>
   <v>       0.46428571       0.42857143       0.03571429 </v>
   <v>       0.50000000       0.42857143       0.03571429 </v>
   <v>      -0.46428571       0.42857143       0.03571429 </v>
   <v>      -0.42857143       0.42857143       0.03571429 </v>
   <v>      -0.39285714       0.42857143       0.03571429 </v>
   <v>       0.50000000       0.46428571       0.03571429 </v>
   <v>      -0.46428571       0.46428571       0.03571429 </v>
   <v>      -0.42857143       0.46428571       0.03571429 </v>
   <v>      -0.46428571       0.50000000       0.03571429 </v>
   <v>       0.21428571       0.14285714       0.07142857 </v>
   <v>       0.25000000       0.14285714       0.07142857 </v>
   <v>       0.28571429       0.14285714       0.07142857 </v>
   <v>       0.32142857       0.14285714       0.07142857 </v>
   <v>       0.35714286       0.14285714       0.07142857 </v>
   <v>       0.39285714       0.14285714       0.07142857 </v>
   <v>       0.42857143       0.14285714       0.07142857 </v>
   <v>       0.46428571       0.14285714       0.07142857 </v>
   <v>       0.50000000       0.14285714       0.07142857 </v>
   <v>      -0.46428571       0.14285714       0.07142857 </v>
   <v>      -0.42857143       0.14285714       0.07142857 </v>
   <v>       0.25000000       0.17857143       0.07142857 </v>
   <v>       0.28571429       0.17857143       0.07142857 </v>
   <v>       0.32142857       0.17857143       0.07142857 </v>
   <v>       0.35714286       0.17857143       0.07142857 </v>
   <v>       0.39285714       0.17857143       0.07142857 </v>
   <v>       0.42857143       0.17857143       0.07142857 </v>
   <v>       0.46428571       0.17857143       0.07142857 </v>
   <v>       0.50000000       0.17857143       0.07142857 </v>
   <v>      -0.46428571       0.17857143       0.07142857 </v>
   <v>      -0.42857143       0.17857143       0.07142857 </v>
   <v>      -0.39285714       0.17857143       0.07142857 </v>
   <v>      -0.35714286       0.17857143       0.07142857 </v>
   <v>      -0.32142857       0.17857143       0.07142857 </v>
   <v>      -0.28571429       0.17857143       0.07142857 </v>
   <v>      -0.25000000       0.17857143       0.07142857 </v>
   <v>      -0.21428571       0.17857143       0.07142857 </v>
   <v>      -0.17857143       0.17857143       0.07142857 </v>
   <v>      -0.14285714       0.17857143       0.07142857 </v>
   <v>      -0.10714286       0.17857143       0.07142857 </v>
   <v>       0.28571429       0.21428571       0.07142857 </v>
   <v>       0.32142857       0.21428571       0.07142857 </v>
   <v>       0.35714286       0.21428571       0.07142857 </v>
   <v>       0.39285714       0.21428571       0.07142857 </v>
   <v>       0.42857143       0.21428571       0.07142857 </v>
   <v>       0.46428571       0.21428571       0.07142857 </v>
   <v>       0.50000000       0.21428571       0.07142857 </v>
   <v>      -0.46428571       0.21428571       0.07142857 </v>
   <v>      -0.42857143       0.21428571       0.07142857 </v>
   <v>      -0.39285714       0.21428571       0.07142857 </v>
   <v>      -0.35714286       0.21428571       0.07142857 </v>
   <v>      -0.32142857       0.21428571       0.07142857 </v>
   <v>      -0.28571429       0.21428571       0.07142857 </v>
   <v>      -0.25000000       0.21428571       0.07142857 </v>
   <v>      -0.21428571       0.21428571       0.07142857 </v>
   <v>      -0.17857143       0.21428571       0.07142857 </v>
   <v>      -0.14285714       0.21428571       0.07142857 </v>
   <v>       0.32142857       0.25000000       0.07142857 </v>
   <v>       0.35714286       0.25000000       0.07142857 </v>
   <v>       0.39285714       0.25000000       0.07142857 </v>
   <v>       0.42857143       0.25000000       0.07142857 </v>
   <v>       0.46428571       0.25000000       0.07142857 </v>
   <v>       0.50000000       0.25000000       0.07142857 </v>
   <v>      -0.46428571       0.25000000       0.07142857 </v>
   <v>      -0.42857143       0.25000000       0.07142857 </v>
   <v>      -0.39285714       0.25000000       0.07142857 </v>
   <v>      -0.35714286       0.25000000       0.07142857 </v>
   <v>      -0.32142857       0.25000000       0.07142857 </v>
   <v>      -0.28571429       0.25000000       0.07142857 </v>
   <v>      -0.25000000       0.25000000       0.07142857 </v>
   <v>      -0.21428571       0.25000000       0.07142857 </v>
   <v>      -0.17857143       0.25000000       0.07142857 </v>
   <v>       0.35714286       0.28571429       0.07142857 </v>
   <v>       0.39285714       0.28571429       0.07142857 </v>
   <v>       0.42857143       0.28571429       0.07142857 </v>
   <v>       0.46428571       0.28571429       0.07142857 </v>
   <v>       0.50000000       0.28571429       0.07142857 </v>
   <v>      -0.46428571       0.28571429       0.07142857 </v>
   <v>      -0.42857143       0.28571429       0.07142857 </v>
   <v>      -0.39285714       0.28571429       0.07142857 </v>
   <v>      -0.35714286       0.28571429       0.07142857 </v>
   <v>      -0.32142857       0.28571429       0.07142857 </v>
   <v>      -0.28571429       0.28571429       0.07142857 </v>
   <v>      -0.25000000       0.28571429       0.07142857 </v>
   <v>      -0.21428571       0.28571429       0.07142857 </v>
   <v>       0.39285714       0.32142857       0.07142857 </v>
   <v>       0.42857143       0.32142857       0.07142857 </v>
   <v>       0.46428571       0.32142857       0.07142857 </v>
   <v>       0.50000000       0.32142857       0.07142857 </v>
   <v>      -0.46428571       0.32142857       0.07142857 </v>
   <v>      -0.42857143       0.32142857       0.07142857 </v>
   <v>      -0.39285714       0.32142857       0.07142857 </v>
   <v>      -0.35714286       0.32142857       0.07142857 </v>
   <v>      -0.32142857       0.32142857       0.07142857 </v>
   <v>      -0.28571429       0.32142857       0.07142857 </v>
   <v>      -0.25000000       0.32142857       0.07142857 </v>
   <v>       0.42857143       0.35714286       0.07142857 </v>
   <v>       0.46428571       0.35714286       0.07142857 </v>
   <v>       0.50000000       0.35714286       0.07142857 </v>
   <v>      -0.46428571       0.35714286       0.07142857 </v>
   <v>      -0.42857143       0.35714286       0.07142857 </v>
   <v>      -0.39285714       0.35714286       0.07142857 </v>
   <v>      -0.35714286       0.35714286       0.07142857 </v>
   <v>      -0.32142857       0.35714286       0.07142857 </v>
   <v>      -0.28571429       0.35714286       0.07142857 </v>
   <v>       0.46428571       0.39285714       0.07142857 </v>
   <v>       0.50000000       0.39285714       0.07142857 </v>
   <v>      -0.46428571       0.39285714       0.07142857 </v>
   <v>      -0.42857143       0.39285714       0.07142857 </v>
   <v>      -0.39285714       0.39285714       0.07142857 </v>
   <v>      -0.35714286       0.39285714       0.07142857 </v>
   <v>      -0.32142857       0.39285714       0.07142857 </v>
   <v>       0.50000000       0.42857143       0.07142857 </v>
   <v>      -0.46428571       0.42857143       0.07142857 </v>
   <v>      -0.42857143       0.42857143       0.07142857 </v>
   <v>      -0.39285714       0.42857143       0.07142857 </v>
   <v>      -0.35714286       0.42857143       0.07142857 </v>
   <v>      -0.46428571       0.46428571       0.07142857 </v>
   <v>      -0.42857143       0.46428571       0.07142857 </v>
   <v>      -0.39285714       0.46428571       0.07142857 </v>
   <v>      -0.42857143       0.50000000       0.07142857 </v>
   <v>       0.32142857       0.21428571       0.10714286 </v>
   <v>       0.35714286       0.21428571       0.10714286 </v>
   <v>       0.39285714       0.21428571       0.10714286 </v>
   <v>       0.42857143       0.21428571       0.10714286 </v>
   <v>       0.46428571       0.21428571       0.10714286 </v>
   <v>       0.50000000       0.21428571       0.10714286 </v>
   <v>      -0.46428571       0.21428571       0.10714286 </v>
   <v>      -0.42857143       0.21428571       0.10714286 </v>
   <v>      -0.39285714       0.21428571       0.10714286 </v>
   <v>       0.35714286       0.25000000       0.10714286 </v>
   <v>       0.39285714       0.25000000       0.10714286 </v>
   <v>       0.42857143       0.25000000       0.10714286 </v>
   <v>       0.46428571       0.25000000       0.10714286 </v>
   <v>       0.50000000       0.25000000       0.10714286 </v>
   <v>      -0.46428571       0.25000000       0.10714286 </v>
   <v>      -0.42857143       0.25000000       0.10714286 </v>
   <v>      -0.39285714       0.25000000       0.10714286 </v>
   <v>      -0.35714286       0.25000000       0.10714286 </v>
   <v>      -0.32142857       0.25000000       0.10714286 </v>
   <v>      -0.28571429       0.25000000       0.10714286 </v>
   <v>      -0.25000000       0.25000000       0.10714286 </v>
   <v>      -0.21428571       0.25000000       0.10714286 </v>
   <v>      -0.17857143       0.25000000       0.10714286 </v>
   <v>      -0.14285714       0.25000000       0.10714286 </v>
   <v>       0.39285714       0.28571429       0.10714286 </v>
   <v>       0.42857143       0.28571429       0.10714286 </v>
   <v>       0.46428571       0.28571429       0.10714286 </v>
   <v>       0.50000000       0.28571429       0.10714286 </v>
   <v>      -0.46428571       0.28571429       0.10714286 </v>
   <v>      -0.42857143       0.28571429       0.10714286 </v>
   <v>      -0.39285714       0.28571429       0.10714286 </v>
   <v>      -0.35714286       0.28571429       0.10714286 </v>
   <v>      -0.32142857       0.28571429       0.10714286 </v>
   <v>      -0.28571429       0.28571429       0.10714286 </v>
   <v>      -0.25000000       0.28571429       0.10714286 </v>
   <v>      -0.21428571       0.28571429       0.10714286 </v>
   <v>      -0.17857143       0.28571429       0.10714286 </v>
   <v>       0.42857143       0.32142857       0.10714286 </v>
   <v>       0.46428571       0.32142857       0.10714286 </v>
   <v>       0.50000000       0.32142857       0.10714286 </v>
   <v>      -0.46428571       0.32142857       0.10714286 </v>
   <v>      -0.42857143       0.32142857       0.10714286 </v>
   <v>      -0.39285714       0.32142857       0.10714286 </v>
   <v>      -0.35714286       0.32142857       0.10714286 </v>
   <v>      -0.32142857       0.32142857       0.10714286 </v>
   <v>      -0.28571429       0.32142857       0.10714286 </v>
   <v>      -0.25000000       0.32142857       0.10714286 </v>
   <v>      -0.21428571       0.32142857       0.10714286 </v>
   <v>       0.46428571       0.35714286       0.10714286 </v>
   <v>       0.50000000       0.35714286       0.10714286 </v>
   <v>      -0.46428571       0.35714286       0.10714286 </v>
   <v>      -0.42857143       0.35714286       0.10714286 </v>
   <v>      -0.39285714       0.35714286       0.10714286 </v>
   <v>      -0.35714286       0.35714286       0.10714286 </v>
   <v>      -0.32142857       0.35714286       0.10714286 </v>
   <v>      -0.28571429       0.35714286       0.10714286 </v>
   <v>      -0.25000000       0.35714286       0.10714286 </v>
   <v>       0.50000000       0.39285714       0.10714286 </v>
   <v>      -0.46428571       0.39285714       0.10714286 </v>
   <v>      -0.42857143       0.39285714       0.10714286 </v>
   <v>      -0.39285714       0.39285714       0.10714286 </v>
   <v>      -0.35714286       0.39285714       0.10714286 </v>
   <v>      -0.32142857       0.39285714       0.10714286 </v>
   <v>      -0.28571429       0.39285714       0.10714286 </v>
   <v>      -0.46428571       0.42857143       0.10714286 </v>
   <v>      -0.42857143       0.42857143       0.10714286 </v>
   <v>      -0.39285714       0.42857143       0.10714286 </v>
   <v>      -0.35714286       0.42857143       0.10714286 </v>
   <v>      -0.32142857       0.42857143       0.10714286 </v>
   <v>      -0.42857143       0.46428571       0.10714286 </v>
   <v>      -0.39285714       0.46428571       0.10714286 </v>
   <v>      -0.35714286       0.46428571       0.10714286 </v>
   <v>      -0.39285714       0.50000000       0.10714286 </v>
   <v>       0.42857143       0.28571429       0.14285714 </v>
   <v>       0.46428571       0.28571429       0.14285714 </v>
   <v>       0.50000000       0.28571429       0.14285714 </v>
   <v>      -0.46428571       0.28571429       0.14285714 </v>
   <v>      -0.42857143       0.28571429       0.14285714 </v>
   <v>      -0.39285714       0.28571429       0.14285714 </v>
   <v>      -0.35714286       0.28571429       0.14285714 </v>
   <v>       0.46428571       0.32142857       0.14285714 </v>
   <v>       0.50000000       0.32142857       0.14285714 </v>
   <v>      -0.46428571       0.32142857       0.14285714 </v>
   <v>      -0.42857143       0.32142857       0.14285714 </v>
   <v>      -0.39285714       0.32142857       0.14285714 </v>
   <v>      -0.35714286       0.32142857       0.14285714 </v>
   <v>      -0.32142857       0.32142857       0.14285714 </v>
   <v>      -0.28571429       0.32142857       0.14285714 </v>
   <v>      -0.25000000       0.32142857       0.14285714 </v>
   <v>      -0.21428571       0.32142857       0.14285714 </v>
   <v>      -0.17857143       0.32142857       0.14285714 </v>
   <v>       0.50000000       0.35714286       0.14285714 </v>
   <v>      -0.46428571       0.35714286       0.14285714 </v>
   <v>      -0.42857143       0.35714286       0.14285714 </v>
   <v>      -0.39285714       0.35714286       0.14285714 </v>
   <v>      -0.35714286       0.35714286       0.14285714 </v>
   <v>      -0.32142857       0.35714286       0.14285714 </v>
   <v>      -0.28571429       0.35714286       0.14285714 </v>
   <v>      -0.25000000       0.35714286       0.14285714 </v>
   <v>      -0.21428571       0.35714286       0.14285714 </v>
   <v>      -0.46428571       0.39285714       0.14285714 </v>
   <v>      -0.42857143       0.39285714       0.14285714 </v>
   <v>      -0.39285714       0.39285714       0.14285714 </v>
   <v>      -0.35714286       0.39285714       0.14285714 </v>
   <v>      -0.32142857       0.39285714       0.14285714 </v>
   <v>      -0.28571429       0.39285714       0.14285714 </v>
   <v>      -0.25000000       0.39285714       0.14285714 </v>
   <v>      -0.42857143       0.42857143       0.14285714 </v>
   <v>      -0.39285714       0.42857143       0.14285714 </v>
   <v>      -0.35714286       0.42857143       0.14285714 </v>
   <v>      -0.32142857       0.42857143       0.14285714 </v>
   <v>      -0.28571429       0.42857143       0.14285714 </v>
   <v>      -0.39285714       0.46428571       0.14285714 </v>
   <v>      -0.35714286       0.46428571       0.14285714 </v>
   <v>      -0.32142857       0.46428571       0.14285714 </v>
   <v>      -0.35714286       0.50000000       0.14285714 </v>
   <v>      -0.46428571       0.35714286       0.17857143 </v>
   <v>      -0.42857143       0.35714286       0.17857143 </v>
   <v>      -0.39285714       0.35714286       0.17857143 </v>
   <v>      -0.35714286       0.35714286       0.17857143 </v>
   <v>      -0.32142857       0.35714286       0.17857143 </v>
   <v>      -0.42857143       0.39285714       0.17857143 </v>
   <v>      -0.39285714       0.39285714       0.17857143 </v>
   <v>      -0.35714286       0.39285714       0.17857143 </v>
   <v>      -0.32142857       0.39285714       0.17857143 </v>
   <v>      -0.28571429       0.39285714       0.17857143 </v>
   <v>      -0.25000000       0.39285714       0.17857143 </v>
   <v>      -0.21428571       0.39285714       0.17857143 </v>
   <v>      -0.39285714       0.42857143       0.17857143 </v>
   <v>      -0.35714286       0.42857143       0.17857143 </v>
   <v>      -0.32142857       0.42857143       0.17857143 </v>
   <v>      -0.28571429       0.42857143       0.17857143 </v>
   <v>      -0.25000000       0.42857143       0.17857143 </v>
   <v>      -0.35714286       0.46428571       0.17857143 </v>
   <v>      -0.32142857       0.46428571       0.17857143 </v>
   <v>      -0.28571429       0.46428571       0.17857143 </v>
   <v>      -0.32142857       0.50000000       0.17857143 </v>
   <v>      -0.35714286       0.42857143       0.21428571 </v>
   <v>      -0.32142857       0.42857143       0.21428571 </v>
   <v>      -0.28571429       0.42857143       0.21428571 </v>
   <v>      -0.32142857       0.46428571       0.21428571 </v>
   <v>      -0.28571429       0.46428571       0.21428571 </v>
   <v>      -0.25000000       0.46428571       0.21428571 </v>
   <v>      -0.28571429       0.50000000       0.21428571 </v>
   <v>      -0.25000000       0.50000000       0.25000000 </v>
  </varray>
  <varray name="weights" >
   <v>       0.00004555 </v>
   <v>       0.00036443 </v>
   <v>       0.00036443 </v>
   <v>       0.00036443 </v>
   <v>       0.00036443 </v>
   <v>       0.00036443 </v>
   <v>       0.00036443 </v>
   <v>       0.00036443 </v>
   <v>       0.00036443 </v>
   <v>       0.00036443 </v>
   <v>       0.00036443 </v>
   <v>       0.00036443 </v>
   <v>       0.00036443 </v>
   <v>       0.00036443 </v>
   <v>       0.00018222 </v>
   <v>       0.00027332 </v>
   <v>       0.00109329 </v>
   <v>       0.00109329 </v>
   <v>       0.00109329 </v>
   <v>       0.00109329 </v>
   <v>       0.00109329 </v>
   <v>       0.00109329 </v>
   <v>       0.00109329 </v>
   <v>       0.00109329 </v>
   <v>       0.00109329 </v>
   <v>       0.00109329 </v>
   <v>       0.00109329 </v>
   <v>       0.00109329 </v>
   <v>       0.00109329 </v>
   <v>       0.00109329 </v>
   <v>       0.00109329 </v>
   <v>       0.00109329 </v>
   <v>       0.00109329 </v>
   <v>       0.00109329 </v>
   <v>       0.00109329 </v>
   <v>       0.00109329 </v>
   <v>       0.00109329 </v>
   <v>       0.00109329 </v>
   <v>       0.00109329 </v>
   <v>       0.00109329 </v>
   <v>       0.00109329 </v>
   <v>       0.00054665 </v>
   <v>       0.00027332 </v>
   <v>       0.00109329 </v>
   <v>       0.00109329 </v>
   <v>       0.00109329 </v>
   <v>       0.00109329 </v>
   <v>       0.00109329 </v>
   <v>       0.00109329 </v>
   <v>       0.00109329 </v>
   <v>       0.00109329 </v>
   <v>       0.00109329 </v>
   <v>       0.00109329 </v>
   <v>       0.00109329 </v>
   <v>       0.00109329 </v>
   <v>       0.00109329 </v>
   <v>       0.00109329 </v>
   <v>       0.00109329 </v>
   <v>       0.00109329 </v>
   <v>       0.00109329 </v>
   <v>       0.00109329 </v>
   <v>       0.00109329 </v>
   <v>       0.00109329 </v>
   <v>       0.00109329 </v>
   <v>       0.00109329 </v>
   <v>       0.00109329 </v>
   <v>       0.00054665 </v>
   <v>       0.00027332 </v>
   <v>       0.00109329 </v>
   <v>       0.00109329 </v>
   <v>       0.00109329 </v>
   <v>       0.00109329 </v>
   <v>       0.00109329 </v>
   <v>       0.00109329 </v>
   <v>       0.00109329 </v>
   <v>       0.00109329 </v>
   <v>       0.00109329 </v>
   <v>       0.00109329 </v>
   <v>       0.00109329 </v>
   <v>       0.00109329 </v>
   <v>       0.00109329 </v>
   <v>       0.00109329 </v>
   <v>       0.00109329 </v>
   <v>       0.00109329 </v>
   <v>       0.00109329 </v>
   <v>       0.00109329 </v>
   <v>       0.00109329 </v>
   <v>       0.00109329 </v>
   <v>       0.00109329 </v>
   <v>       0.00054665 </v>
   <v>       0.00027332 </v>
   <v>       0.00109329 </v>
   <v>       0.00109329 </v>
   <v>       0.00109329 </v>
   <v>       0.00109329 </v>
   <v>       0.00109329 </v>
   <v>       0.00109329 </v>
   <v>       0.00109329 </v>
   <v>       0.00109329 </v>
   <v>       0.00109329 </v>
   <v>       0.00109329 </v>
   <v>       0.00109329 </v>
   <v>       0.00109329 </v>
   <v>       0.00109329 </v>
   <v>       0.00109329 </v>
   <v>       0.00109329 </v>
   <v>       0.00109329 </v>
   <v>       0.00109329 </v>
   <v>       0.00109329 </v>
   <v>       0.00109329 </v>
   <v>       0.00054665 </v>
   <v>       0.00027332 </v>
   <v>       0.00109329 </v>
   <v>       0.00109329 </v>
   <v>       0.00109329 </v>
   <v>       0.00109329 </v>
   <v>       0.00109329 </v>
   <v>       0.00109329 </v>
   <v>       0.00109329 </v>
   <v>       0.00109329 </v>
   <v>       0.00109329 </v>
   <v>       0.00109329 </v>
   <v>       0.00109329 </v>
   <v>       0.00109329 </v>
   <v>       0.00109329 </v>
   <v>       0.00109329 </v>
   <v>       0.00109329 </v>
   <v>       0.00109329 </v>
   <v>       0.00109329 </v>
   <v>       0.00054665 </v>
   <v>       0.00027332 </v>
   <v>       0.00109329 </v>
   <v>       0.00109329 </v>
   <v>       0.00109329 </v>
   <v>       0.00109329 </v>
   <v>       0.00109329 </v>
   <v>       0.00109329 </v>
   <v>       0.00109329 </v>
   <v>       0.00109329 </v>
   <v>       0.00109329 </v>
   <v>       0.00109329 </v>
   <v>       0.00109329 </v>
   <v>       0.00109329 </v>
   <v>       0.00109329 </v>
   <v>       0.00109329 </v>
   <v>       0.00109329 </v>
   <v>       0.00054665 </v>
   <v>       0.00027332 </v>
   <v>       0.00109329 </v>
   <v>       0.00109329 </v>
   <v>       0.00109329 </v>
   <v>       0.00109329 </v>
   <v>       0.00109329 </v>
   <v>       0.00109329 </v>
   <v>       0.00109329 </v>
   <v>       0.00109329 </v>
   <v>       0.00109329 </v>
   <v>       0.00109329 </v>
   <v>       0.00109329 </v>
   <v>       0.00109329 </v>
   <v>       0.00109329 </v>
   <v>       0.00054665 </v>
   <v>       0.00027332 </v>
   <v>       0.00109329 </v>
   <v>       0.00109329 </v>
   <v>       0.00109329 </v>
   <v>       0.00109329 </v>
   <v>       0.00109329 </v>
   <v>       0.00109329 </v>
   <v>       0.00109329 </v>
   <v>       0.00109329 </v>
   <v>       0.00109329 </v>
   <v>       0.00109329 </v>
   <v>       0.00109329 </v>
   <v>       0.00054665 </v>
   <v>       0.00027332 </v>
   <v>       0.00109329 </v>
   <v>       0.00109329 </v>
   <v>       0.00109329 </v>
   <v>       0.00109329 </v>
   <v>       0.00109329 </v>
   <v>       0.00109329 </v>
   <v>       0.00109329 </v>
   <v>       0.00109329 </v>
   <v>       0.00109329 </v>
   <v>       0.00054665 </v>
   <v>       0.00027332 </v>
   <v>       0.00109329 </v>
   <v>       0.00109329 </v>
   <v>       0.00109329 </v>
   <v>       0.00109329 </v>
   <v>       0.00109329 </v>
   <v>       0.00109329 </v>
   <v>       0.00109329 </v>
   <v>       0.00054665 </v>
   <v>       0.00027332 </v>
   <v>       0.00109329 </v>
   <v>       0.00109329 </v>
   <v>       0.00109329 </v>
   <v>       0.00109329 </v>
   <v>       0.00109329 </v>
   <v>       0.00054665 </v>
   <v>       0.00027332 </v>
   <v>       0.00109329 </v>
   <v>       0.00109329 </v>
   <v>       0.00109329 </v>
   <v>       0.00054665 </v>
   <v>       0.00027332 </v>
   <v>       0.00109329 </v>
   <v>       0.00054665 </v>
   <v>       0.00013666 </v>
   <v>       0.00109329 </v>
   <v>       0.00218659 </v>
   <v>       0.00218659 </v>
   <v>       0.00218659 </v>
   <v>       0.00218659 </v>
   <v>       0.00218659 </v>
   <v>       0.00218659 </v>
   <v>       0.00218659 </v>
   <v>       0.00218659 </v>
   <v>       0.00218659 </v>
   <v>       0.00218659 </v>
   <v>       0.00218659 </v>
   <v>       0.00109329 </v>
   <v>       0.00109329 </v>
   <v>       0.00218659 </v>
   <v>       0.00218659 </v>
   <v>       0.00218659 </v>
   <v>       0.00218659 </v>
   <v>       0.00218659 </v>
   <v>       0.00218659 </v>
   <v>       0.00218659 </v>
   <v>       0.00218659 </v>
   <v>       0.00218659 </v>
   <v>       0.00218659 </v>
   <v>       0.00218659 </v>
   <v>       0.00218659 </v>
   <v>       0.00218659 </v>
   <v>       0.00218659 </v>
   <v>       0.00218659 </v>
   <v>       0.00218659 </v>
   <v>       0.00218659 </v>
   <v>       0.00218659 </v>
   <v>       0.00218659 </v>
   <v>       0.00218659 </v>
   <v>       0.00218659 </v>
   <v>       0.00109329 </v>
   <v>       0.00109329 </v>
   <v>       0.00218659 </v>
   <v>       0.00218659 </v>
   <v>       0.00218659 </v>
   <v>       0.00218659 </v>
   <v>       0.00218659 </v>
   <v>       0.00218659 </v>
   <v>       0.00218659 </v>
   <v>       0.00218659 </v>
   <v>       0.00218659 </v>
   <v>       0.00218659 </v>
   <v>       0.00218659 </v>
   <v>       0.00218659 </v>
   <v>       0.00218659 </v>
   <v>       0.00218659 </v>
   <v>       0.00218659 </v>
   <v>       0.00218659 </v>
   <v>       0.00218659 </v>
   <v>       0.00218659 </v>
   <v>       0.00218659 </v>
   <v>       0.00109329 </v>
   <v>       0.00109329 </v>
   <v>       0.00218659 </v>
   <v>       0.00218659 </v>
   <v>       0.00218659 </v>
   <v>       0.00218659 </v>
   <v>       0.00218659 </v>
   <v>       0.00218659 </v>
   <v>       0.00218659 </v>
   <v>       0.00218659 </v>
   <v>       0.00218659 </v>
   <v>       0.00218659 </v>
   <v>       0.00218659 </v>
   <v>       0.00218659 </v>
   <v>       0.00218659 </v>
   <v>       0.00218659 </v>
   <v>       0.00218659 </v>
   <v>       0.00218659 </v>
   <v>       0.00218659 </v>
   <v>       0.00109329 </v>
   <v>       0.00109329 </v>
   <v>       0.00218659 </v>
   <v>       0.00218659 </v>
   <v>       0.00218659 </v>
   <v>       0.00218659 </v>
   <v>       0.00218659 </v>
   <v>       0.00218659 </v>
   <v>       0.00218659 </v>
   <v>       0.00218659 </v>
   <v>       0.00218659 </v>
   <v>       0.00218659 </v>
   <v>       0.00218659 </v>
   <v>       0.00218659 </v>
   <v>       0.00218659 </v>
   <v>       0.00218659 </v>
   <v>       0.00218659 </v>
   <v>       0.00109329 </v>
   <v>       0.00109329 </v>
   <v>       0.00218659 </v>
   <v>       0.00218659 </v>
   <v>       0.00218659 </v>
   <v>       0.00218659 </v>
   <v>       0.00218659 </v>
   <v>       0.00218659 </v>
   <v>       0.00218659 </v>
   <v>       0.00218659 </v>
   <v>       0.00218659 </v>
   <v>       0.00218659 </v>
   <v>       0.00218659 </v>
   <v>       0.00218659 </v>
   <v>       0.00218659 </v>
   <v>       0.00109329 </v>
   <v>       0.00109329 </v>
   <v>       0.00218659 </v>
   <v>       0.00218659 </v>
   <v>       0.00218659 </v>
   <v>       0.00218659 </v>
   <v>       0.00218659 </v>
   <v>       0.00218659 </v>
   <v>       0.00218659 </v>
   <v>       0.00218659 </v>
   <v>       0.00218659 </v>
   <v>       0.00218659 </v>
   <v>       0.00218659 </v>
   <v>       0.00109329 </v>
   <v>       0.00109329 </v>
   <v>       0.00218659 </v>
   <v>       0.00218659 </v>
   <v>       0.00218659 </v>
   <v>       0.00218659 </v>
   <v>       0.00218659 </v>
   <v>       0.00218659 </v>
   <v>       0.00218659 </v>
   <v>       0.00218659 </v>
   <v>       0.00218659 </v>
   <v>       0.00109329 </v>
   <v>       0.00109329 </v>
   <v>       0.00218659 </v>
   <v>       0.00218659 </v>
   <v>       0.00218659 </v>
   <v>       0.00218659 </v>
   <v>       0.00218659 </v>
   <v>       0.00218659 </v>
   <v>       0.00218659 </v>
   <v>       0.00109329 </v>
   <v>       0.00109329 </v>
   <v>       0.00218659 </v>
   <v>       0.00218659 </v>
   <v>       0.00218659 </v>
   <v>       0.00218659 </v>
   <v>       0.00218659 </v>
   <v>       0.00109329 </v>
   <v>       0.00109329 </v>
   <v>       0.00218659 </v>
   <v>       0.00218659 </v>
   <v>       0.00218659 </v>
   <v>       0.00109329 </v>
   <v>       0.00109329 </v>
   <v>       0.00218659 </v>
   <v>       0.00109329 </v>
   <v>       0.00054665 </v>
   <v>       0.00109329 </v>
   <v>       0.00218659 </v>
   <v>       0.00218659 </v>
   <v>       0.00218659 </v>
   <v>       0.00218659 </v>
   <v>       0.00218659 </v>
   <v>       0.00218659 </v>
   <v>       0.00218659 </v>
   <v>       0.00218659 </v>
   <v>       0.00218659 </v>
   <v>       0.00109329 </v>
   <v>       0.00109329 </v>
   <v>       0.00218659 </v>
   <v>       0.00218659 </v>
   <v>       0.00218659 </v>
   <v>       0.00218659 </v>
   <v>       0.00218659 </v>
   <v>       0.00218659 </v>
   <v>       0.00218659 </v>
   <v>       0.00218659 </v>
   <v>       0.00218659 </v>
   <v>       0.00218659 </v>
   <v>       0.00218659 </v>
   <v>       0.00218659 </v>
   <v>       0.00218659 </v>
   <v>       0.00218659 </v>
   <v>       0.00218659 </v>
   <v>       0.00218659 </v>
   <v>       0.00218659 </v>
   <v>       0.00109329 </v>
   <v>       0.00109329 </v>
   <v>       0.00218659 </v>
   <v>       0.00218659 </v>
   <v>       0.00218659 </v>
   <v>       0.00218659 </v>
   <v>       0.00218659 </v>
   <v>       0.00218659 </v>
   <v>       0.00218659 </v>
   <v>       0.00218659 </v>
   <v>       0.00218659 </v>
   <v>       0.00218659 </v>
   <v>       0.00218659 </v>
   <v>       0.00218659 </v>
   <v>       0.00218659 </v>
   <v>       0.00218659 </v>
   <v>       0.00218659 </v>
   <v>       0.00109329 </v>
   <v>       0.00109329 </v>
   <v>       0.00218659 </v>
   <v>       0.00218659 </v>
   <v>       0.00218659 </v>
   <v>       0.00218659 </v>
   <v>       0.00218659 </v>
   <v>       0.00218659 </v>
   <v>       0.00218659 </v>
   <v>       0.00218659 </v>
   <v>       0.00218659 </v>
   <v>       0.00218659 </v>
   <v>       0.00218659 </v>
   <v>       0.00218659 </v>
   <v>       0.00218659 </v>
   <v>       0.00109329 </v>
   <v>       0.00109329 </v>
   <v>       0.00218659 </v>
   <v>       0.00218659 </v>
   <v>       0.00218659 </v>
   <v>       0.00218659 </v>
   <v>       0.00218659 </v>
   <v>       0.00218659 </v>
   <v>       0.00218659 </v>
   <v>       0.00218659 </v>
   <v>       0.00218659 </v>
   <v>       0.00218659 </v>
   <v>       0.00218659 </v>
   <v>       0.00109329 </v>
   <v>       0.00109329 </v>
   <v>       0.00218659 </v>
   <v>       0.00218659 </v>
   <v>       0.00218659 </v>
   <v>       0.00218659 </v>
   <v>       0.00218659 </v>
   <v>       0.00218659 </v>
   <v>       0.00218659 </v>
   <v>       0.00218659 </v>
   <v>       0.00218659 </v>
   <v>       0.00109329 </v>
   <v>       0.00109329 </v>
   <v>       0.00218659 </v>
   <v>       0.00218659 </v>
   <v>       0.00218659 </v>
   <v>       0.00218659 </v>
   <v>       0.00218659 </v>
   <v>       0.00218659 </v>
   <v>       0.00218659 </v>
   <v>       0.00109329 </v>
   <v>       0.00109329 </v>
   <v>       0.00218659 </v>
   <v>       0.00218659 </v>
   <v>       0.00218659 </v>
   <v>       0.00218659 </v>
   <v>       0.00218659 </v>
   <v>       0.00109329 </v>
   <v>       0.00109329 </v>
   <v>       0.00218659 </v>
   <v>       0.00218659 </v>
   <v>       0.00218659 </v>
   <v>       0.00109329 </v>
   <v>       0.00109329 </v>
   <v>       0.00218659 </v>
   <v>       0.00109329 </v>
   <v>       0.00054665 </v>
   <v>       0.00109329 </v>
   <v>       0.00218659 </v>
   <v>       0.00218659 </v>
   <v>       0.00218659 </v>
   <v>       0.00218659 </v>
   <v>       0.00218659 </v>
   <v>       0.00218659 </v>
   <v>       0.00218659 </v>
   <v>       0.00109329 </v>
   <v>       0.00109329 </v>
   <v>       0.00218659 </v>
   <v>       0.00218659 </v>
   <v>       0.00218659 </v>
   <v>       0.00218659 </v>
   <v>       0.00218659 </v>
   <v>       0.00218659 </v>
   <v>       0.00218659 </v>
   <v>       0.00218659 </v>
   <v>       0.00218659 </v>
   <v>       0.00218659 </v>
   <v>       0.00218659 </v>
   <v>       0.00218659 </v>
   <v>       0.00218659 </v>
   <v>       0.00109329 </v>
   <v>       0.00109329 </v>
   <v>       0.00218659 </v>
   <v>       0.00218659 </v>
   <v>       0.00218659 </v>
   <v>       0.00218659 </v>
   <v>       0.00218659 </v>
   <v>       0.00218659 </v>
   <v>       0.00218659 </v>
   <v>       0.00218659 </v>
   <v>       0.00218659 </v>
   <v>       0.00218659 </v>
   <v>       0.00218659 </v>
   <v>       0.00109329 </v>
   <v>       0.00109329 </v>
   <v>       0.00218659 </v>
   <v>       0.00218659 </v>
   <v>       0.00218659 </v>
   <v>       0.00218659 </v>
   <v>       0.00218659 </v>
   <v>       0.00218659 </v>
   <v>       0.00218659 </v>
   <v>       0.00218659 </v>
   <v>       0.00218659 </v>
   <v>       0.00109329 </v>
   <v>       0.00109329 </v>
   <v>       0.00218659 </v>
   <v>       0.00218659 </v>
   <v>       0.00218659 </v>
   <v>       0.00218659 </v>
   <v>       0.00218659 </v>
   <v>       0.00218659 </v>
   <v>       0.00218659 </v>
   <v>       0.00109329 </v>
   <v>       0.00109329 </v>
   <v>       0.00218659 </v>
   <v>       0.00218659 </v>
   <v>       0.00218659 </v>
   <v>       0.00218659 </v>
   <v>       0.00218659 </v>
   <v>       0.00109329 </v>
   <v>       0.00109329 </v>
   <v>       0.00218659 </v>
   <v>       0.00218659 </v>
   <v>       0.00218659 </v>
   <v>       0.00109329 </v>
   <v>       0.00109329 </v>
   <v>       0.00218659 </v>
   <v>       0.00109329 </v>
   <v>       0.00054665 </v>
   <v>       0.00109329 </v>
   <v>       0.00218659 </v>
   <v>       0.00218659 </v>
   <v>       0.00218659 </v>
   <v>       0.00218659 </v>
   <v>       0.00218659 </v>
   <v>       0.00109329 </v>
   <v>       0.00109329 </v>
   <v>       0.00218659 </v>
   <v>       0.00218659 </v>
   <v>       0.00218659 </v>
   <v>       0.00218659 </v>
   <v>       0.00218659 </v>
   <v>       0.00218659 </v>
   <v>       0.00218659 </v>
   <v>       0.00218659 </v>
   <v>       0.00218659 </v>
   <v>       0.00109329 </v>
   <v>       0.00109329 </v>
   <v>       0.00218659 </v>
   <v>       0.00218659 </v>
   <v>       0.00218659 </v>
   <v>       0.00218659 </v>
   <v>       0.00218659 </v>
   <v>       0.00218659 </v>
   <v>       0.00218659 </v>
   <v>       0.00109329 </v>
   <v>       0.00109329 </v>
   <v>       0.00218659 </v>
   <v>       0.00218659 </v>
   <v>       0.00218659 </v>
   <v>       0.00218659 </v>
   <v>       0.00218659 </v>
   <v>       0.00109329 </v>
   <v>       0.00109329 </v>
   <v>       0.00218659 </v>
   <v>       0.00218659 </v>
   <v>       0.00218659 </v>
   <v>       0.00109329 </v>
   <v>       0.00109329 </v>
   <v>       0.00218659 </v>
   <v>       0.00109329 </v>
   <v>       0.00054665 </v>
   <v>       0.00109329 </v>
   <v>       0.00218659 </v>
   <v>       0.00218659 </v>
   <v>       0.00218659 </v>
   <v>       0.00109329 </v>
   <v>       0.00109329 </v>
   <v>       0.00218659 </v>
   <v>       0.00218659 </v>
   <v>       0.00218659 </v>
   <v>       0.00218659 </v>
   <v>       0.00218659 </v>
   <v>       0.00109329 </v>
   <v>       0.00109329 </v>
   <v>       0.00218659 </v>
   <v>       0.00218659 </v>
   <v>       0.00218659 </v>
   <v>       0.00109329 </v>
   <v>       0.00109329 </v>
   <v>       0.00218659 </v>
   <v>       0.00109329 </v>
   <v>       0.00054665 </v>
   <v>       0.00109329 </v>
   <v>       0.00218659 </v>
   <v>       0.00109329 </v>
   <v>       0.00109329 </v>
   <v>       0.00218659 </v>
   <v>       0.00109329 </v>
   <v>       0.00054665 </v>
   <v>       0.00027332 </v>
  </varray>
 </kpoints>
 <parameters>
  <separator name="general" >
   <i type="string" name="SYSTEM">DFT Groundstate Calculation</i>
   <i type="logical" name="LCOMPAT"> F  </i>
  </separator>
  <separator name="electronic" >
   <i type="string" name="PREC">normal</i>
   <i name="ENMAX">    520.00000000</i>
   <i name="ENAUG">    322.06900000</i>
   <i name="EDIFF">      0.00000001</i>
   <i type="int" name="IALGO">    38</i>
   <i type="int" name="IWAVPR">    11</i>
   <i type="int" name="NBANDS">     8</i>
   <i type="int" name="NBANDSLOW">    -1</i>
   <i type="int" name="NBANDSHIGH">    -1</i>
   <i name="NELECT">      4.00000000</i>
   <i type="int" name="TURBO">     0</i>
   <i type="int" name="IRESTART">     0</i>
   <i type="int" name="NREBOOT">     0</i>
   <i type="int" name="NMIN">     0</i>
   <i name="EREF">      0.00000000</i>
   <separator name="electronic smearing" >
    <i type="int" name="ISMEAR">     0</i>
    <i name="SIGMA">      0.05000000</i>
    <i name="KSPACING">      0.10000000</i>
    <i type="logical" name="KGAMMA"> T  </i>
    <i type="logical" name="KBLOWUP"> T  </i>
   </separator>
   <separator name="electronic projectors" >
    <i type="logical" name="LREAL"> T  </i>
    <v name="ROPT">     -0.00050000</v>
    <i type="int" name="LMAXPAW">  -100</i>
    <i type="int" name="LMAXMIX">     2</i>
    <i type="logical" name="NLSPLINE"> F  </i>
   </separator>
   <separator name="electronic startup" >
    <i type="int" name="ISTART">     0</i>
    <i type="int" name="ICHARG">     2</i>
    <i type="int" name="INIWAV">     1</i>
   </separator>
   <separator name="electronic spin" >
    <i type="int" name="ISPIN">     1</i>
    <i type="logical" name="LNONCOLLINEAR"> F  </i>
    <v name="MAGMOM">      1.00000000</v>
    <i name="NUPDOWN">     -1.00000000</i>
    <i type="logical" name="LSORBIT"> F  </i>
    <v name="SAXIS">      0.00000000      0.00000000      1.00000000</v>
    <i type="logical" name="LSPIRAL"> F  </i>
    <v name="QSPIRAL">      0.00000000      0.00000000      0.00000000</v>
    <i type="logical" name="LZEROZ"> F  </i>
   </separator>
   <separator name="electronic exchange-correlation" >
    <i type="logical" name="LASPH"> F  </i>
    <i type="logical" name="LMETAGGA"> F  </i>
   </separator>
   <separator name="electronic convergence" >
    <i type="int" name="NELM">    60</i>
    <i type="int" name="NELMDL">    -5</i>
    <i type="int" name="NELMIN">     2</i>
    <i name="ENINI">    520.00000000</i>
    <separator name="electronic convergence detail" >
     <i type="logical" name="LDIAG"> T  </i>
     <i type="logical" name="LSUBROT"> F  </i>
     <i name="WEIMIN">      0.00100000</i>
     <i name="EBREAK">      0.00000000</i>
     <i name="DEPER">      0.30000000</i>
     <i type="int" name="NRMM">     4</i>
     <i name="TIME">      0.40000000</i>
    </separator>
   </separator>
   <separator name="electronic mixer" >
    <i name="AMIX">      0.40000000</i>
    <i name="BMIX">      1.00000000</i>
    <i name="AMIN">      0.10000000</i>
    <i name="AMIX_MAG">      1.60000000</i>
    <i name="BMIX_MAG">      1.00000000</i>
    <separator name="electronic mixer details" >
     <i type="int" name="IMIX">     4</i>
     <i type="logical" name="MIXFIRST"> F  </i>
     <i type="int" name="MAXMIX">   -45</i>
     <i name="WC">    100.00000000</i>
     <i type="int" name="INIMIX">     1</i>
     <i type="int" name="MIXPRE">     1</i>
     <i type="int" name="MREMOVE">     5</i>
    </separator>
   </separator>
   <separator name="electronic dipolcorrection" >
    <i type="logical" name="LDIPOL"> F  </i>
    <i type="logical" name="LMONO"> F  </i>
    <i type="int" name="IDIPOL">     0</i>
    <i name="EPSILON">      1.00000000</i>
    <v name="DIPOL">   -100.00000000   -100.00000000   -100.00000000</v>
    <i name="EFIELD">      0.00000000</i>
   </separator>
  </separator>
  <separator name="grids" >
   <i type="int" name="NGX">    16</i>
   <i type="int" name="NGY">    16</i>
   <i type="int" name="NGZ">    16</i>
   <i type="int" name="NGXF">    32</i>
   <i type="int" name="NGYF">    32</i>
   <i type="int" name="NGZF">    32</i>
   <i type="logical" name="ADDGRID"> F  </i>
  </separator>
  <separator name="ionic" >
   <i type="int" name="NSW">    50</i>
   <i type="int" name="IBRION">     2</i>
   <i type="int" name="MDALGO">     0</i>
   <i type="int" name="ISIF">     3</i>
   <i name="PSTRESS">      0.00000000</i>
   <i name="EDIFFG">      0.00000010</i>
   <i type="int" name="NFREE">     1</i>
   <i name="POTIM">      0.50000000</i>
   <i name="SMASS">     -3.00000000</i>
   <i name="SCALEE">      1.00000000</i>
  </separator>
  <separator name="ionic md" >
   <i name="TEBEG">      0.00010000</i>
   <i name="TEEND">      0.00010000</i>
   <i type="int" name="NBLOCK">     1</i>
   <i type="int" name="KBLOCK">    50</i>
   <i type="int" name="NPACO">   256</i>
   <i name="APACO">     10.00000000</i>
  </separator>
  <separator name="symmetry" >
   <i type="int" name="ISYM">     2</i>
   <i name="SYMPREC">      0.00001000</i>
  </separator>
  <separator name="dos" >
   <i type="int" name="LORBIT">     0</i>
   <v name="RWIGS">     -1.00000000</v>
   <i type="int" name="NEDOS">   301</i>
   <i name="EMIN">     10.00000000</i>
   <i name="EMAX">    -10.00000000</i>
   <i name="EFERMI">      0.00000000</i>
  </separator>
  <separator name="writing" >
   <i type="int" name="NWRITE">     2</i>
   <i type="logical" name="LWAVE"> T  </i>
   <i type="logical" name="LDOWNSAMPLE"> F  </i>
   <i type="logical" name="LCHARG"> T  </i>
   <i type="logical" name="LPARD"> F  </i>
   <i type="logical" name="LVTOT"> F  </i>
   <i type="logical" name="LVHAR"> F  </i>
   <i type="logical" name="LELF"> F  </i>
   <i type="logical" name="LOPTICS"> F  </i>
   <v name="STM">      0.00000000      0.00000000      0.00000000      0.00000000      0.00000000      0.00000000      0.00000000</v>
  </separator>
  <separator name="performance" >
   <i type="int" name="NPAR">     8</i>
   <i type="int" name="NSIM">     4</i>
   <i type="int" name="NBLK">    -1</i>
   <i type="logical" name="LPLANE"> T  </i>
   <i type="logical" name="LSCALAPACK"> T  </i>
   <i type="logical" name="LSCAAWARE"> F  </i>
   <i type="logical" name="LSCALU"> F  </i>
   <i type="logical" name="LASYNC"> F  </i>
   <i type="logical" name="LORBITALREAL"> F  </i>
  </separator>
  <separator name="miscellaneous" >
   <i type="int" name="IDIOT">     3</i>
   <i type="int" name="PHON_NSTRUCT">    -1</i>
   <i type="logical" name="LMUSIC"> F  </i>
   <v name="POMASS">     28.08500000</v>
   <v name="DARWINR">      0.00000000</v>
   <v name="DARWINV">      1.00000000</v>
   <i type="logical" name="LCORR"> T  </i>
  </separator>
  <i type="logical" name="GGA_COMPAT"> T  </i>
  <i type="logical" name="LBERRY"> F  </i>
  <i type="int" name="ICORELEVEL">     0</i>
  <i type="logical" name="LDAU"> F  </i>
  <i type="int" name="I_CONSTRAINED_M">     0</i>
  <separator name="electronic exchange-correlation" >
   <i type="string" name="GGA">--</i>
   <i type="int" name="VOSKOWN">     0</i>
   <i type="logical" name="LHFCALC"> F  </i>
   <i type="string" name="PRECFOCK"></i>
   <i type="logical" name="LSYMGRAD"> F  </i>
   <i type="logical" name="LHFONE"> F  </i>
   <i type="logical" name="LRHFCALC"> F  </i>
   <i type="logical" name="LTHOMAS"> F  </i>
   <i type="logical" name="LMODELHF"> F  </i>
   <i type="logical" name="LFOCKACE"> F  </i>
   <i name="ENCUT4O">     -1.00000000</i>
   <i type="int" name="EXXOEP">     0</i>
   <i type="int" name="FOURORBIT">     0</i>
   <i name="AEXX">      0.00000000</i>
   <i name="HFALPHA">      0.00000000</i>
   <i name="MCALPHA">      0.00000000</i>
   <i name="ALDAX">      1.00000000</i>
   <i name="AGGAX">      1.00000000</i>
   <i name="ALDAC">      1.00000000</i>
   <i name="AGGAC">      1.00000000</i>
   <i type="int" name="NKREDX">     1</i>
   <i type="int" name="NKREDY">     1</i>
   <i type="int" name="NKREDZ">     1</i>
   <i type="logical" name="SHIFTRED"> F  </i>
   <i type="logical" name="ODDONLY"> F  </i>
   <i type="logical" name="EVENONLY"> F  </i>
   <i type="int" name="LMAXFOCK">     0</i>
   <i type="int" name="NMAXFOCKAE">     0</i>
   <i type="logical" name="LFOCKAEDFT"> F  </i>
   <i name="HFSCREEN">      0.00000000</i>
   <i name="HFSCREENC">      0.00000000</i>
   <i type="int" name="NBANDSGWLOW">     0</i>
  </separator>
  <separator name="vdW DFT" >
   <i type="logical" name="LUSE_VDW"> F  </i>
   <i name="Zab_VDW">     -0.84910000</i>
   <i name="PARAM1">      0.12340000</i>
   <i name="PARAM2">      1.00000000</i>
   <i name="PARAM3">      0.00000000</i>
  </separator>
  <separator name="model GW" >
   <i type="int" name="MODEL_GW">     0</i>
   <i name="MODEL_EPS0">      8.89785000</i>
   <i name="MODEL_ALPHA">      1.00000000</i>
  </separator>
  <separator name="linear response parameters" >
   <i type="logical" name="LEPSILON"> F  </i>
   <i type="logical" name="LRPA"> F  </i>
   <i type="logical" name="LNABLA"> F  </i>
   <i type="logical" name="LVEL"> F  </i>
   <i name="CSHIFT">      0.10000000</i>
   <i name="OMEGAMAX">     -1.00000000</i>
   <i name="DEG_THRESHOLD">      0.00200000</i>
   <i name="RTIME">     -0.10000000</i>
   <i name="WPLASMAI">      0.00000000</i>
   <v name="DFIELD">      0.00000000      0.00000000      0.00000000</v>
   <v name="WPLASMA">      0.00000000      0.00000000      0.00000000      0.00000000      0.00000000      0.00000000      0.00000000      0.00000000      0.00000000</v>
  </separator>
  <separator name="orbital magnetization" >
   <i type="logical" name="NUCIND"> F  </i>
   <v name="MAGPOS">      0.00000000      0.00000000      0.00000000</v>
   <i type="logical" name="LNICSALL"> T  </i>
   <i type="logical" name="ORBITALMAG"> F  </i>
   <i type="logical" name="LMAGBLOCH"> F  </i>
   <i type="logical" name="LCHIMAG"> F  </i>
   <i type="logical" name="LGAUGE"> T  </i>
   <i type="int" name="MAGATOM">     0</i>
   <v name="MAGDIPOL">      0.00000000      0.00000000      0.00000000</v>
   <v name="AVECCONST">      0.00000000      0.00000000      0.00000000</v>
  </separator>
  <separator name="response functions" >
   <i type="logical" name="LFINITE_TEMPERATURE"> F  </i>
   <i type="logical" name="LADDER"> F  </i>
   <i type="logical" name="LRPAFORCE"> F  </i>
   <i type="logical" name="LFXC"> F  </i>
   <i type="logical" name="LHARTREE"> T  </i>
   <i type="int" name="IBSE">     0</i>
   <v type="int" name="KPOINT">    -1     0     0     0</v>
   <i type="logical" name="LTCTC"> F  </i>
   <i type="logical" name="LTCTE"> F  </i>
   <i type="logical" name="LTETE"> F  </i>
   <i type="logical" name="LTRIPLET"> F  </i>
   <i type="logical" name="LFXCEPS"> F  </i>
   <i type="logical" name="LFXHEG"> F  </i>
   <i type="int" name="NATURALO">     2</i>
   <i type="logical" name="LHOLEGF"> F  </i>
   <i type="logical" name="L2ORDER"> F  </i>
   <i type="logical" name="LDMP1"> F  </i>
   <i type="logical" name="LMP2LT"> F  </i>
   <i type="logical" name="LSMP2LT"> F  </i>
   <i type="logical" name="LGWLF"> F  </i>
   <i name="ENCUTGW">     -2.00000000</i>
   <i name="ENCUTGWSOFT">     -2.00000000</i>
   <i name="ENCUTLF">     -1.00000000</i>
   <i type="logical" name="LESF_SPLINES"> F  </i>
   <i type="int" name="LMAXMP2">    -1</i>
   <i name="SCISSOR">      0.00000000</i>
   <i type="int" name="NOMEGA">     0</i>
   <i type="int" name="NOMEGAR">     0</i>
   <i type="int" name="NBANDSGW">    -1</i>
   <i type="int" name="NBANDSO">    -1</i>
   <i type="int" name="NBANDSV">    -1</i>
   <i type="int" name="NELMGW">     1</i>
   <i type="int" name="NELMHF">     1</i>
   <i type="int" name="DIM">     3</i>
   <i type="int" name="IESPILON">     4</i>
   <i type="int" name="ANTIRES">     0</i>
   <i name="OMEGAMAX">    -30.00000000</i>
   <i name="OMEGAMIN">    -30.00000000</i>
   <i name="OMEGATL">   -200.00000000</i>
   <i type="int" name="OMEGAGRID">     0</i>
   <i name="CSHIFT">     -0.10000000</i>
   <i type="logical" name="LSELFENERGY"> F  </i>
   <i type="logical" name="LSPECTRAL"> F  </i>
   <i type="logical" name="LSPECTRALGW"> F  </i>
   <i type="logical" name="LSINGLES"> F  </i>
   <i type="logical" name="LFERMIGW"> F  </i>
   <i type="logical" name="ODDONLYGW"> F  </i>
   <i type="logical" name="EVENONLYGW"> F  </i>
   <i type="int" name="NKREDLFX">     1</i>
   <i type="int" name="NKREDLFY">     1</i>
   <i type="int" name="NKREDLFZ">     1</i>
   <i type="int" name="MAXMEM">  2800</i>
   <i type="int" name="TELESCOPE">     0</i>
   <i type="int" name="NTAUPAR">    -1</i>
   <i type="int" name="NOMEGAPAR">    -1</i>
   <i name="DAMP_NEWTON">      0.80000001</i>
   <i name="LAMBDA">      1.00000000</i>
  </separator>
  <separator name="External order field" >
   <i name="OFIELD_KAPPA">      0.00000000</i>
   <v name="OFIELD_K">      0.00000000      0.00000000      0.00000000</v>
   <i name="OFIELD_Q6_NEAR">      0.00000000</i>
   <i name="OFIELD_Q6_FAR">      0.00000000</i>
   <i name="OFIELD_A">      0.00000000</i>
  </separator>
  <separator name="optional k-points parameters" >
   <i type="int" name="KPOINTS_OPT_MODE">     1</i>
   <i type="logical" name="LKPOINTS_OPT"> F  </i>
  </separator>
 </parameters>
 <atominfo>
  <atoms>       1 </atoms>
  <types>       1 </types>
  <array name="atoms" >
   <dimension dim="1">ion</dimension>
   <field type="string">element</field>
   <field type="int">atomtype</field>
   <set>
    <rc><c>Si</c><c>   1</c></rc>
   </set>
  </array>
  <array name="atomtypes" >
   <dimension dim="1">type</dimension>
   <field type="int">atomspertype</field>
   <field type="string">element</field>
   <field>mass</field>
   <field>valence</field>
   <field type="string">pseudopotential</field>
   <set>
    <rc><c>   1</c><c>Si</c><c>     28.08500000</c><c>      4.00000000</c><c> PAW_PBE Si 05Jan2001                   </c></rc>
   </set>
  </array>
 </atominfo>
 <structure name="initialpos" >
  <crystal>
   <varray name="basis" >
    <v>       1.95000000       1.95000000       0.00000000 </v>
    <v>       0.00000000       1.95000000       1.95000000 </v>
    <v>       1.95000000       0.00000000       1.95000000 </v>
   </varray>
   <i name="volume">     14.82975000 </i>
   <varray name="rec_basis" >
    <v>       0.25641026       0.25641026      -0.25641026 </v>
    <v>      -0.25641026       0.25641026       0.25641026 </v>
    <v>       0.25641026      -0.25641026       0.25641026 </v>
   </varray>
  </crystal>
  <varray name="positions" >
   <v>       0.00000000       0.00000000       0.00000000 </v>
  </varray>
 </structure>
 <calculation>
  <scstep>
   <time name="dav">    0.46    0.51</time>
   <time name="total">    0.47    0.53</time>
   <energy>
    <i name="alphaZ">      2.26996938 </i>
    <i name="ewald">   -135.42777035 </i>
    <i name="hartreedc">     -0.65300110 </i>
    <i name="XCdc">     -8.87087552 </i>
    <i name="pawpsdc">     32.97760406 </i>
    <i name="pawaedc">    -15.38426339 </i>
    <i name="eentropy">     -0.00061538 </i>
    <i name="bandstr">     19.61416226 </i>
    <i name="atom">    103.06635137 </i>
    <i name="e_fr_energy">     -2.40843868 </i>
    <i name="e_wo_entrp">     -2.40782330 </i>
    <i name="e_0_energy">     -2.40813099 </i>
   </energy>
  </scstep>
  <scstep>
   <time name="dav">    0.61    0.63</time>
   <time name="total">    0.61    0.62</time>
   <energy>
    <i name="e_fr_energy">     -4.89323331 </i>
    <i name="e_wo_entrp">     -4.89278127 </i>
    <i name="e_0_energy">     -4.89300729 </i>
   </energy>
  </scstep>
  <scstep>
   <time name="dav">    0.44    0.45</time>
   <time name="total">    0.44    0.45</time>
   <energy>
    <i name="e_fr_energy">     -4.90721718 </i>
    <i name="e_wo_entrp">     -4.90677212 </i>
    <i name="e_0_energy">     -4.90699465 </i>
   </energy>
  </scstep>
  <scstep>
   <time name="dav">    0.70    0.70</time>
   <time name="total">    0.70    0.71</time>
   <energy>
    <i name="e_fr_energy">     -4.90723215 </i>
    <i name="e_wo_entrp">     -4.90678711 </i>
    <i name="e_0_energy">     -4.90700963 </i>
   </energy>
  </scstep>
  <scstep>
   <time name="dav">    0.45    0.45</time>
   <time name="total">    0.46    0.46</time>
   <energy>
    <i name="e_fr_energy">     -4.90723215 </i>
    <i name="e_wo_entrp">     -4.90678711 </i>
    <i name="e_0_energy">     -4.90700963 </i>
   </energy>
  </scstep>
  <scstep>
   <time name="dav">    0.47    0.47</time>
   <time name="total">    0.48    0.51</time>
   <energy>
    <i name="e_fr_energy">     -4.89490989 </i>
    <i name="e_wo_entrp">     -4.89446602 </i>
    <i name="e_0_energy">     -4.89468795 </i>
   </energy>
  </scstep>
  <scstep>
   <time name="dav">    0.47    0.47</time>
   <time name="total">    0.48    0.50</time>
   <energy>
    <i name="e_fr_energy">     -4.88790197 </i>
    <i name="e_wo_entrp">     -4.88745874 </i>
    <i name="e_0_energy">     -4.88768035 </i>
   </energy>
  </scstep>
  <scstep>
   <time name="dav">    0.62    0.62</time>
   <time name="total">    0.63    0.64</time>
   <energy>
    <i name="e_fr_energy">     -4.88788657 </i>
    <i name="e_wo_entrp">     -4.88744351 </i>
    <i name="e_0_energy">     -4.88766504 </i>
   </energy>
  </scstep>
  <scstep>
   <time name="dav">    0.54    0.54</time>
   <time name="total">    0.55    0.56</time>
   <energy>
    <i name="e_fr_energy">     -4.88788728 </i>
    <i name="e_wo_entrp">     -4.88744425 </i>
    <i name="e_0_energy">     -4.88766576 </i>
   </energy>
  </scstep>
  <scstep>
   <time name="dav">    0.60    0.60</time>
   <time name="total">    0.62    0.64</time>
   <energy>
    <i name="e_fr_energy">     -4.88788682 </i>
    <i name="e_wo_entrp">     -4.88744380 </i>
    <i name="e_0_energy">     -4.88766531 </i>
   </energy>
  </scstep>
  <scstep>
   <time name="dav">    0.39    0.39</time>
   <time name="total">    0.41    0.41</time>
   <energy>
    <i name="e_fr_energy">     -4.88788675 </i>
    <i name="e_wo_entrp">     -4.88744372 </i>
    <i name="e_0_energy">     -4.88766523 </i>
   </energy>
  </scstep>
  <scstep>
   <time name="dav">    0.35    0.35</time>
   <time name="total">    0.36    0.37</time>
   <energy>
    <i name="e_fr_energy">     -4.88788676 </i>
    <i name="e_wo_entrp">     -4.88744373 </i>
    <i name="e_0_energy">     -4.88766525 </i>
   </energy>
  </scstep>
  <scstep>
   <time name="dav">    0.29    0.29</time>
   <time name="total">    0.29    0.30</time>
   <energy>
    <i name="alphaZ">      2.26996938 </i>
    <i name="ewald">   -135.42777035 </i>
    <i name="hartreedc">     -0.48604176 </i>
    <i name="XCdc">     -8.82472795 </i>
    <i name="pawpsdc">     33.62590013 </i>
    <i name="pawaedc">    -16.03571696 </i>
    <i name="eentropy">     -0.00044303 </i>
    <i name="bandstr">     16.92459241 </i>
    <i name="atom">    103.06635137 </i>
    <i name="e_fr_energy">     -4.88788676 </i>
    <i name="e_wo_entrp">     -4.88744373 </i>
    <i name="e_0_energy">     -4.88766525 </i>
   </energy>
  </scstep>
  <structure>
   <crystal>
    <varray name="basis" >
     <v>       1.95000000       1.95000000       0.00000000 </v>
     <v>       0.00000000       1.95000000       1.95000000 </v>
     <v>       1.95000000       0.00000000       1.95000000 </v>
    </varray>
    <i name="volume">     14.82975000 </i>
    <varray name="rec_basis" >
     <v>       0.25641026       0.25641026      -0.25641026 </v>
     <v>      -0.25641026       0.25641026       0.25641026 </v>
     <v>       0.25641026      -0.25641026       0.25641026 </v>
    </varray>
   </crystal>
   <varray name="positions" >
    <v>       0.00000000       0.00000000       0.00000000 </v>
   </varray>
  </structure>
  <varray name="forces" >
   <v>      -0.00000000      -0.00000000      -0.00000000 </v>
  </varray>
  <varray name="stress" >
   <v>     -17.36843107       0.00000000       0.00000000 </v>
   <v>      -0.00000000     -17.36843107      -0.00000000 </v>
   <v>      -0.00000000       0.00000000     -17.36843107 </v>
  </varray>
  <energy>
   <i name="e_fr_energy">     -4.88788676 </i>
   <i name="e_wo_entrp">     -4.88744373 </i>
   <i name="e_0_energy">     -4.88766525 </i>
  </energy>
  <time name="totalsc">    7.19    7.41</time>
 </calculation>
 <calculation>
[...]
      <set comment="kpoint 613">
       <r>    5.0653    1.0000 </r>
       <r>    7.7669    1.0000 </r>
       <r>    8.6381    1.0000 </r>
       <r>    9.7299    1.0000 </r>
       <r>   21.6471    0.0000 </r>
       <r>   22.5351    0.0000 </r>
       <r>   28.2448    0.0000 </r>
       <r>   30.4662    0.0000 </r>
      </set>
      <set comment="kpoint 614">
       <r>    5.8859    1.0000 </r>
       <r>    7.3258    1.0000 </r>
       <r>    7.9796    1.0000 </r>
       <r>    9.6099    1.0000 </r>
       <r>   22.1729    0.0000 </r>
       <r>   23.5272    0.0000 </r>
       <r>   27.8010    0.0000 </r>
       <r>   29.2296    0.0000 </r>
      </set>
      <set comment="kpoint 615">
       <r>    6.5459    1.0000 </r>
       <r>    6.7429    1.0000 </r>
       <r>    7.5663    1.0000 </r>
       <r>    9.8109    1.0000 </r>
       <r>   22.4885    0.0000 </r>
       <r>   24.7426    0.0000 </r>
       <r>   27.1041    0.0000 </r>
       <r>   28.3642    0.0000 </r>
      </set>
      <set comment="kpoint 616">
       <r>    5.9871    1.0000 </r>
       <r>    6.7862    1.0000 </r>
       <r>    8.5917    1.0000 </r>
       <r>    9.6582    1.0000 </r>
       <r>   21.6028    0.0000 </r>
       <r>   22.5039    0.0000 </r>
       <r>   28.9824    0.0000 </r>
       <r>   29.7102    0.0000 </r>
      </set>
      <set comment="kpoint 617">
       <r>    4.4278    1.0000 </r>
       <r>    7.9879    1.0000 </r>
       <r>    8.7657    1.0000 </r>
       <r>   10.0162    1.0000 </r>
       <r>   23.5319    0.0000 </r>
       <r>   23.7281    0.0000 </r>
       <r>   25.8116    0.0000 </r>
       <r>   29.9344    0.0000 </r>
      </set>
      <set comment="kpoint 618">
       <r>    5.2918    1.0000 </r>
       <r>    7.2178    1.0000 </r>
       <r>    8.6428    1.0000 </r>
       <r>    9.6464    1.0000 </r>
       <r>   23.7164    0.0000 </r>
       <r>   24.5069    0.0000 </r>
       <r>   25.8490    0.0000 </r>
       <r>   28.7363    0.0000 </r>
      </set>
      <set comment="kpoint 619">
       <r>    6.0351    1.0000 </r>
       <r>    6.4497    1.0000 </r>
       <r>    8.6865    1.0000 </r>
       <r>    9.4944    1.0000 </r>
       <r>   23.7433    0.0000 </r>
       <r>   24.7740    0.0000 </r>
       <r>   26.1469    0.0000 </r>
       <r>   28.0739    0.0000 </r>
      </set>
      <set comment="kpoint 620">
       <r>    5.5731    1.0000 </r>
       <r>    7.8486    1.0000 </r>
       <r>    8.0890    1.0000 </r>
       <r>    9.1583    1.0000 </r>
       <r>   23.4022    0.0000 </r>
       <r>   23.8208    0.0000 </r>
       <r>   26.5351    0.0000 </r>
       <r>   28.9370    0.0000 </r>
      </set>
      <set comment="kpoint 621">
       <r>    6.4198    1.0000 </r>
       <r>    7.0927    1.0000 </r>
       <r>    7.9061    1.0000 </r>
       <r>    9.0282    1.0000 </r>
       <r>   23.7909    0.0000 </r>
       <r>   24.7651    0.0000 </r>
       <r>   26.0631    0.0000 </r>
       <r>   27.9668    0.0000 </r>
      </set>
      <set comment="kpoint 622">
       <r>    6.1580    1.0000 </r>
       <r>    7.1510    1.0000 </r>
       <r>    7.9425    1.0000 </r>
       <r>    9.2388    1.0000 </r>
       <r>   23.9589    0.0000 </r>
       <r>   25.2253    0.0000 </r>
       <r>   25.5673    0.0000 </r>
       <r>   27.8735    0.0000 </r>
      </set>
      <set comment="kpoint 623">
       <r>    6.4994    1.0000 </r>
       <r>    7.2039    1.0000 </r>
       <r>    7.8021    1.0000 </r>
       <r>    8.9869    1.0000 </r>
       <r>   23.3588    0.0000 </r>
       <r>   23.8373    0.0000 </r>
       <r>   27.0640    0.0000 </r>
       <r>   28.3250    0.0000 </r>
      </set>
      <set comment="kpoint 624">
       <r>    7.1045    1.0000 </r>
       <r>    7.1045    1.0000 </r>
       <r>    7.4459    1.0000 </r>
       <r>    8.6597    1.0000 </r>
       <r>   24.5472    0.0000 </r>
       <r>   25.1833    0.0000 </r>
       <r>   25.1833    0.0000 </r>
       <r>   27.5948    0.0000 </r>
      </set>
     </set>
    </set>
   </array>
  </eigenvalues>
  <separator name="orbital magnetization" >
   <v name="MAGDIPOLOUT">      0.00000000      0.00000000      0.00000000</v>
  </separator>
  <dos>
   <i name="efermi">     10.20878949 </i>
   <total>
    <array>
     <dimension dim="1">gridpoints</dimension>
     <dimension dim="2">spin</dimension>
     <field>energy</field>
     <field>total</field>
     <field>integrated</field>
     <set>
      <set comment="spin 1">
       <r>    -6.3131     0.0000     0.0000 </r>
       <r>    -6.1640     0.0000     0.0000 </r>
       <r>    -6.0148     0.0000     0.0000 </r>
       <r>    -5.8657     0.0000     0.0000 </r>
       <r>    -5.7166     0.0000     0.0000 </r>
       <r>    -5.5675     0.0000     0.0000 </r>
       <r>    -5.4183     0.0000     0.0000 </r>
       <r>    -5.2692     0.0000     0.0000 </r>
       <r>    -5.1201     0.0000     0.0000 </r>
       <r>    -4.9710     0.0000     0.0000 </r>
       <r>    -4.8218     0.0000     0.0000 </r>
       <r>    -4.6727     0.0000     0.0000 </r>
       <r>    -4.5236     0.0000     0.0000 </r>
       <r>    -4.3745     0.0000     0.0000 </r>
       <r>    -4.2253     0.0069     0.0010 </r>
       <r>    -4.0762     0.0348     0.0062 </r>
       <r>    -3.9271     0.0560     0.0146 </r>
       <r>    -3.7780     0.0717     0.0252 </r>
       <r>    -3.6288     0.0708     0.0358 </r>
       <r>    -3.4797     0.0921     0.0495 </r>
       <r>    -3.3306     0.0971     0.0640 </r>
       <r>    -3.1815     0.1150     0.0812 </r>
       <r>    -3.0323     0.0962     0.0955 </r>
       <r>    -2.8832     0.1315     0.1151 </r>
       <r>    -2.7341     0.1146     0.1322 </r>
       <r>    -2.5850     0.1498     0.1545 </r>
       <r>    -2.4358     0.1324     0.1743 </r>
       <r>    -2.2867     0.1313     0.1939 </r>
       <r>    -2.1376     0.1679     0.2189 </r>
       <r>    -1.9885     0.1738     0.2448 </r>
       <r>    -1.8393     0.1241     0.2633 </r>
       <r>    -1.6902     0.1813     0.2904 </r>
       <r>    -1.5411     0.1845     0.3179 </r>
       <r>    -1.3920     0.1643     0.3424 </r>
       <r>    -1.2428     0.1725     0.3681 </r>
       <r>    -1.0937     0.2032     0.3984 </r>
       <r>    -0.9446     0.1847     0.4259 </r>
       <r>    -0.7955     0.1960     0.4552 </r>
       <r>    -0.6463     0.1777     0.4817 </r>
       <r>    -0.4972     0.2525     0.5193 </r>
       <r>    -0.3481     0.1819     0.5464 </r>
       <r>    -0.1990     0.2035     0.5768 </r>
       <r>    -0.0498     0.2336     0.6116 </r>
       <r>     0.0993     0.2204     0.6445 </r>
       <r>     0.2484     0.2359     0.6797 </r>
       <r>     0.3975     0.2058     0.7103 </r>
       <r>     0.5467     0.2290     0.7445 </r>
       <r>     0.6958     0.2596     0.7832 </r>
       <r>     0.8449     0.2519     0.8208 </r>
       <r>     0.9940     0.2348     0.8558 </r>
       <r>     1.1432     0.2365     0.8911 </r>
       <r>     1.2923     0.2326     0.9258 </r>
       <r>     1.4414     0.3183     0.9732 </r>
       <r>     1.5906     0.2172     1.0056 </r>
       <r>     1.7397     0.2962     1.0498 </r>
       <r>     1.8888     0.2542     1.0877 </r>
       <r>     2.0379     0.2337     1.1226 </r>
       <r>     2.1871     0.3078     1.1684 </r>
       <r>     2.3362     0.3246     1.2168 </r>
       <r>     2.4853     0.2438     1.2532 </r>
       <r>     2.6344     0.3098     1.2994 </r>
       <r>     2.7836     0.2451     1.3360 </r>
       <r>     2.9327     0.3438     1.3872 </r>
       <r>     3.0818     0.2877     1.4302 </r>
       <r>     3.2309     0.3012     1.4751 </r>
       <r>     3.3801     0.2463     1.5118 </r>
       <r>     3.5292     0.2538     1.5496 </r>
       <r>     3.6783     0.3174     1.5970 </r>
       <r>     3.8274     0.3201     1.6447 </r>
       <r>     3.9766     0.3618     1.6987 </r>
       <r>     4.1257     0.2926     1.7423 </r>
       <r>     4.2748     0.2599     1.7811 </r>
       <r>     4.4239     0.3155     1.8281 </r>
       <r>     4.5731     0.3743     1.8839 </r>
       <r>     4.7222     0.3492     1.9360 </r>
       <r>     4.8713     0.3529     1.9886 </r>
       <r>     5.0204     0.2868     2.0314 </r>
       <r>     5.1696     0.3417     2.0823 </r>
       <r>     5.3187     0.3964     2.1414 </r>
       <r>     5.4678     0.2659     2.1811 </r>
       <r>     5.6169     0.3285     2.2301 </r>
       <r>     5.7661     0.3838     2.2873 </r>
       <r>     5.9152     0.3195     2.3350 </r>
       <r>     6.0643     0.3721     2.3904 </r>
       <r>     6.2134     0.2716     2.4310 </r>
       <r>     6.3626     0.4015     2.4908 </r>
       <r>     6.5117     0.3831     2.5480 </r>
       <r>     6.6608     0.3732     2.6036 </r>
       <r>     6.8099     0.4072     2.6643 </r>
       <r>     6.9591     0.3413     2.7152 </r>
       <r>     7.1082     0.3690     2.7702 </r>
       <r>     7.2573     0.2809     2.8121 </r>
       <r>     7.4064     0.3966     2.8713 </r>
       <r>     7.5556     0.3563     2.9244 </r>
       <r>     7.7047     0.4124     2.9859 </r>
       <r>     7.8538     0.3546     3.0388 </r>
       <r>     8.0029     0.4759     3.1098 </r>
       <r>     8.1521     0.4013     3.1696 </r>
       <r>     8.3012     0.3096     3.2158 </r>
       <r>     8.4503     0.3258     3.2644 </r>
       <r>     8.5994     0.4455     3.3308 </r>
       <r>     8.7486     0.4695     3.4008 </r>
       <r>     8.8977     0.3622     3.4548 </r>
       <r>     9.0468     0.4391     3.5203 </r>
       <r>     9.1959     0.4234     3.5835 </r>
       <r>     9.3451     0.3314     3.6329 </r>
       <r>     9.4942     0.3355     3.6829 </r>
       <r>     9.6433     0.4602     3.7515 </r>
       <r>     9.7925     0.5894     3.8394 </r>
       <r>     9.9416     0.3717     3.8949 </r>
       <r>    10.0907     0.3751     3.9508 </r>
       <r>    10.2398     0.4106     4.0120 </r>
       <r>    10.3890     0.3832     4.0692 </r>
       <r>    10.5381     0.4666     4.1388 </r>
       <r>    10.6872     0.4986     4.2131 </r>
       <r>    10.8363     0.4465     4.2797 </r>
       <r>    10.9855     0.4598     4.3483 </r>
       <r>    11.1346     0.3673     4.4030 </r>
       <r>    11.2837     0.5124     4.4795 </r>
       <r>    11.4328     0.4302     4.5436 </r>
       <r>    11.5820     0.4510     4.6109 </r>
       <r>    11.7311     0.5102     4.6870 </r>
       <r>    11.8802     0.3706     4.7422 </r>
       <r>    12.0293     0.5616     4.8260 </r>
       <r>    12.1785     0.4478     4.8928 </r>
       <r>    12.3276     0.5245     4.9710 </r>
       <r>    12.4767     0.4542     5.0387 </r>
       <r>    12.6258     0.4341     5.1034 </r>
       <r>    12.7750     0.5307     5.1826 </r>
       <r>    12.9241     0.5095     5.2586 </r>
       <r>    13.0732     0.5773     5.3446 </r>
       <r>    13.2223     0.5101     5.4207 </r>
       <r>    13.3715     0.4628     5.4897 </r>
       <r>    13.5206     0.6704     5.5897 </r>
       <r>    13.6697     0.5405     5.6703 </r>
       <r>    13.8188     0.5475     5.7520 </r>
       <r>    13.9680     0.5199     5.8295 </r>
       <r>    14.1171     0.5743     5.9151 </r>
       <r>    14.2662     0.6046     6.0053 </r>
       <r>    14.4153     0.3874     6.0631 </r>
       <r>    14.5645     0.4370     6.1282 </r>
       <r>    14.7136     0.6056     6.2185 </r>
       <r>    14.8627     0.5907     6.3066 </r>
       <r>    15.0118     0.3753     6.3626 </r>
       <r>    15.1610     0.5205     6.4402 </r>
       <r>    15.3101     0.3854     6.4977 </r>
       <r>    15.4592     0.5030     6.5727 </r>
       <r>    15.6083     0.4975     6.6469 </r>
       <r>    15.7575     0.4766     6.7179 </r>
       <r>    15.9066     0.4020     6.7779 </r>
       <r>    16.0557     0.5671     6.8624 </r>
       <r>    16.2048     0.4425     6.9284 </r>
       <r>    16.3540     0.3950     6.9873 </r>
       <r>    16.5031     0.4295     7.0514 </r>
       <r>    16.6522     0.6128     7.1428 </r>
       <r>    16.8013     0.4056     7.2032 </r>
       <r>    16.9505     0.5718     7.2885 </r>
       <r>    17.0996     0.3906     7.3468 </r>
       <r>    17.2487     0.4437     7.4129 </r>
       <r>    17.3978     0.5323     7.4923 </r>
       <r>    17.5470     0.6085     7.5831 </r>
       <r>    17.6961     0.4406     7.6488 </r>
       <r>    17.8452     0.5018     7.7236 </r>
       <r>    17.9943     0.4809     7.7953 </r>
       <r>    18.1435     0.5717     7.8806 </r>
       <r>    18.2926     0.5588     7.9639 </r>
       <r>    18.4417     0.4971     8.0380 </r>
       <r>    18.5909     0.4539     8.1057 </r>
       <r>    18.7400     0.6865     8.2081 </r>
       <r>    18.8891     0.4321     8.2725 </r>
       <r>    19.0382     0.5325     8.3519 </r>
       <r>    19.1874     0.5180     8.4292 </r>
       <r>    19.3365     0.6173     8.5212 </r>
       <r>    19.4856     0.5550     8.6040 </r>
       <r>    19.6347     0.5586     8.6873 </r>
       <r>    19.7839     0.4260     8.7508 </r>
       <r>    19.9330     0.6906     8.8538 </r>
       <r>    20.0821     0.4966     8.9279 </r>
       <r>    20.2312     0.4306     8.9921 </r>
       <r>    20.3804     0.5104     9.0682 </r>
       <r>    20.5295     0.7037     9.1731 </r>
       <r>    20.6786     0.6425     9.2689 </r>
       <r>    20.8277     0.5678     9.3536 </r>
       <r>    20.9769     0.6489     9.4503 </r>
       <r>    21.1260     0.6290     9.5441 </r>
       <r>    21.2751     0.6089     9.6349 </r>
       <r>    21.4242     0.6212     9.7276 </r>
       <r>    21.5734     0.5197     9.8051 </r>
       <r>    21.7225     0.5193     9.8825 </r>
       <r>    21.8716     0.6793     9.9838 </r>
       <r>    22.0207     0.5964    10.0728 </r>
       <r>    22.1699     0.5517    10.1550 </r>
       <r>    22.3190     0.5713    10.2402 </r>
       <r>    22.4681     0.4719    10.3106 </r>
       <r>    22.6172     0.6625    10.4094 </r>
       <r>    22.7664     0.5696    10.4943 </r>
       <r>    22.9155     0.5980    10.5835 </r>
       <r>    23.0646     0.4378    10.6488 </r>
       <r>    23.2137     0.5178    10.7260 </r>
       <r>    23.3629     0.6958    10.8298 </r>
       <r>    23.5120     0.7253    10.9379 </r>
       <r>    23.6611     0.8257    11.0611 </r>
       <r>    23.8102     0.7400    11.1714 </r>
       <r>    23.9594     0.5446    11.2526 </r>
       <r>    24.1085     0.5954    11.3414 </r>
       <r>    24.2576     0.6131    11.4328 </r>
       <r>    24.4067     0.6208    11.5254 </r>
       <r>    24.5559     0.7723    11.6406 </r>
       <r>    24.7050     0.5931    11.7290 </r>
       <r>    24.8541     0.7489    11.8407 </r>
       <r>    25.0032     0.5266    11.9192 </r>
       <r>    25.1524     0.6365    12.0142 </r>
       <r>    25.3015     0.5139    12.0908 </r>
       <r>    25.4506     0.7402    12.2012 </r>
       <r>    25.5997     0.6198    12.2936 </r>
       <r>    25.7489     0.5351    12.3734 </r>
       <r>    25.8980     0.8241    12.4963 </r>
       <r>    26.0471     0.7926    12.6145 </r>
       <r>    26.1962     0.7281    12.7231 </r>
       <r>    26.3454     0.5578    12.8063 </r>
       <r>    26.4945     0.4972    12.8804 </r>
       <r>    26.6436     0.6832    12.9823 </r>
       <r>    26.7927     0.5439    13.0634 </r>
       <r>    26.9419     0.7296    13.1722 </r>
       <r>    27.0910     0.7148    13.2788 </r>
       <r>    27.2401     0.5260    13.3572 </r>
       <r>    27.3893     0.5633    13.4412 </r>
       <r>    27.5384     0.5072    13.5169 </r>
       <r>    27.6875     0.5675    13.6015 </r>
       <r>    27.8366     0.7891    13.7192 </r>
       <r>    27.9858     0.4642    13.7884 </r>
       <r>    28.1349     0.4809    13.8601 </r>
       <r>    28.2840     0.5439    13.9413 </r>
       <r>    28.4331     0.6575    14.0393 </r>
       <r>    28.5823     0.5310    14.1185 </r>
       <r>    28.7314     0.5638    14.2026 </r>
       <r>    28.8805     0.4252    14.2660 </r>
       <r>    29.0296     0.4819    14.3378 </r>
       <r>    29.1788     0.3963    14.3969 </r>
       <r>    29.3279     0.4629    14.4660 </r>
       <r>    29.4770     0.6061    14.5564 </r>
       <r>    29.6261     0.6094    14.6472 </r>
       <r>    29.7753     0.6099    14.7382 </r>
       <r>    29.9244     0.4064    14.7988 </r>
       <r>    30.0735     0.4651    14.8681 </r>
       <r>    30.2226     0.5818    14.9549 </r>
       <r>    30.3718     0.5066    15.0304 </r>
       <r>    30.5209     0.5168    15.1075 </r>
       <r>    30.6700     0.4088    15.1685 </r>
       <r>    30.8191     0.3897    15.2266 </r>
       <r>    30.9683     0.3361    15.2767 </r>
       <r>    31.1174     0.3331    15.3264 </r>
       <r>    31.2665     0.2730    15.3671 </r>
       <r>    31.4156     0.3219    15.4151 </r>
       <r>    31.5648     0.2528    15.4528 </r>
       <r>    31.7139     0.2109    15.4843 </r>
       <r>    31.8630     0.3300    15.5335 </r>
       <r>    32.0121     0.1960    15.5627 </r>
       <r>    32.1613     0.1869    15.5906 </r>
       <r>    32.3104     0.2291    15.6247 </r>
       <r>    32.4595     0.2395    15.6604 </r>
       <r>    32.6086     0.1116    15.6771 </r>
       <r>    32.7578     0.2225    15.7103 </r>
       <r>    32.9069     0.1598    15.7341 </r>
       <r>    33.0560     0.1958    15.7633 </r>
       <r>    33.2051     0.1609    15.7873 </r>
       <r>    33.3543     0.1582    15.8109 </r>
       <r>    33.5034     0.1073    15.8269 </r>
       <r>    33.6525     0.0996    15.8417 </r>
       <r>    33.8016     0.1352    15.8619 </r>
       <r>    33.9508     0.1490    15.8841 </r>
       <r>    34.0999     0.1336    15.9040 </r>
       <r>    34.2490     0.0900    15.9174 </r>
       <r>    34.3981     0.0459    15.9243 </r>
       <r>    34.5473     0.0827    15.9366 </r>
       <r>    34.6964     0.0836    15.9491 </r>
       <r>    34.8455     0.0766    15.9605 </r>
       <r>    34.9946     0.0500    15.9680 </r>
       <r>    35.1438     0.0358    15.9733 </r>
       <r>    35.2929     0.0368    15.9788 </r>
       <r>    35.4420     0.0449    15.9855 </r>
       <r>    35.5912     0.0139    15.9876 </r>
       <r>    35.7403     0.0200    15.9906 </r>
       <r>    35.8894     0.0409    15.9967 </r>
       <r>    36.0385     0.0022    15.9970 </r>
       <r>    36.1877     0.0072    15.9981 </r>
       <r>    36.3368     0.0113    15.9997 </r>
       <r>    36.4859     0.0017    16.0000 </r>
       <r>    36.6350     0.0000    16.0000 </r>
       <r>    36.7842     0.0000    16.0000 </r>
       <r>    36.9333     0.0000    16.0000 </r>
       <r>    37.0824     0.0000    16.0000 </r>
       <r>    37.2315     0.0000    16.0000 </r>
       <r>    37.3807     0.0000    16.0000 </r>
       <r>    37.5298     0.0000    16.0000 </r>
       <r>    37.6789     0.0000    16.0000 </r>
       <r>    37.8280     0.0000    16.0000 </r>
       <r>    37.9772     0.0000    16.0000 </r>
       <r>    38.1263     0.0000    16.0000 </r>
       <r>    38.2754     0.0000    16.0000 </r>
       <r>    38.4245     0.0000    16.0000 </r>
      </set>
     </set>
    </array>
   </total>
  </dos>
 </calculation>
 <structure name="finalpos" >
  <crystal>
   <varray name="basis" >
    <v>       1.93347330       1.93347330      -0.00000000 </v>
    <v>      -0.00000000       1.93347330       1.93347330 </v>
    <v>       1.93347330       0.00000000       1.93347330 </v>
   </varray>
   <i name="volume">     14.45587996 </i>
   <varray name="rec_basis" >
    <v>       0.25860197       0.25860197      -0.25860197 </v>
    <v>      -0.25860197       0.25860197       0.25860197 </v>
    <v>       0.25860197      -0.25860197       0.25860197 </v>
   </varray>
  </crystal>
  <varray name="positions" >
   <v>      -0.00000000      -0.00000000      -0.00000000 </v>
  </varray>
 </structure>
</modeling>
