DFT Groundstate Calculation             
           1
     1.950000    1.950000    0.000000
     0.000000    1.950000    1.950000
     1.950000    0.000000    1.950000
   Si
     1
Direct configuration=     1
   0.00000000  0.00000000  0.00000000
DFT Groundstate Calculation             
           1
     1.934877    1.934877   -0.000000
    -0.000000    1.934877    1.934877
     1.934877    0.000000    1.934877
   Si
     1
Direct configuration=     2
  -0.00000000 -0.00000000 -0.00000000
DFT Groundstate Calculation             
           1
     1.933473    1.933473   -0.000000
    -0.000000    1.933473    1.933473
     1.933473    0.000000    1.933473
   Si
     1
Direct configuration=     3
  -0.00000000 -0.00000000 -0.00000000
