DFT Virtual Orbitals for Silicon        
   5.43000000000000     
     0.500000    0.500000    0.000000
     0.000000    0.500000    0.500000
     0.500000    0.000000    0.500000
   Si
     2
Direct
  0.000000  0.000000  0.000000
  0.250000  0.250000  0.250000
 
   32   32   32
 -.94825     0.19899      3.2867      7.4027      11.442      14.493      16.079      16.189      15.173      13.552    
  11.836      10.291      9.0026      8.0047      7.3008      6.8837      6.7457      6.8837      7.3008      8.0047    
  9.0026      10.291      11.836      13.552      15.173      16.189      16.079      14.493      11.442      7.4027    
  3.2867     0.19900     0.19899      2.4795      6.3425      10.687      14.430      16.846      17.699      17.190    
  15.793      14.061      12.401      10.952      9.7706      8.8774      8.2801      7.9811      7.9811      8.2801    
  8.8774      9.7706      10.952      12.401      14.061      15.793      17.190      17.699      16.846      14.430    
  10.687      6.3424      2.4795     0.19895      3.2867      6.3425      10.396      14.343      17.289      18.777    
  18.817      17.772      16.168      14.490      12.959      11.646      10.590      9.8140      9.3387      9.1785    
  9.3387      9.8140      10.590      11.646      12.959      14.490      16.168      17.772      18.817      18.777    
  17.289      14.343      10.396      6.3424      3.2866      2.1483      7.4027      10.687      14.343      17.434    
  19.339      19.878      19.257      17.918      16.352      14.846      13.489      12.330      11.405      10.755    
  10.418      10.418      10.755      11.405      12.330      13.489      14.846      16.352      17.918      19.257    
  19.878      19.339      17.434      14.343      10.687      7.4027      5.4541      5.4541      11.442      14.430    
  17.289      19.339      20.246      20.054      19.082      17.761      16.407      15.122      13.952      12.940    
  12.140      11.619      11.437      11.619      12.140      12.940      13.952      15.122      16.407      17.761    
  19.082      20.054      20.246      19.339      17.289      14.430      11.442      9.1706      8.3215      9.1706    
  14.493      16.846      18.777      19.878      20.054      19.490      18.523      17.444      16.352      15.286    
  14.276      13.373      12.674      12.289      12.289      12.674      13.373      14.276      15.286      16.352    
  17.444      18.523      19.490      20.054      19.878      18.777      16.846      14.493      12.354      11.077    
  11.077      12.354      16.079      17.699      18.817      19.257      19.082      18.523      17.808      17.015    
  16.168      15.266      14.343      13.507      12.915      12.701      12.915      13.507      14.343      15.266    
  16.168      17.015      17.808      18.523      19.082      19.257      18.817      17.699      16.079      14.358    
  13.040      12.547      13.040      14.358      16.189      17.190      17.772      17.918      17.761      17.444    
  17.015      16.476      15.793      14.961      14.075      13.315      12.874      12.874      13.315      14.075    
  14.961      15.793      16.476      17.015      17.444      17.761      17.918      17.772      17.190      16.189    
  14.968      13.854      13.189      13.189      13.854      14.968      15.173      15.793      16.168      16.352    
  16.407      16.352      16.168      15.793      15.173      14.361      13.526      12.895      12.660      12.895    
  13.526      14.361      15.173      15.793      16.168      16.352      16.407      16.352      16.168      15.793    
  15.173      14.361      13.526      12.895      12.660      12.895      13.526      14.361      13.552      14.061    
  14.490      14.846      15.122      15.286      15.266      14.961      14.361      13.591      12.871      12.437    
  12.437      12.871      13.591      14.361      14.961      15.266      15.286      15.122      14.846      14.490    
  14.061      13.552      12.962      12.347      11.822      11.518      11.518      11.822      12.347      12.962    
  11.836      12.401      12.959      13.489      13.952      14.276      14.343      14.075      13.526      12.871    
  12.343      12.142      12.343      12.871      13.526      14.075      14.343      14.276      13.952      13.489    
  12.959      12.401      11.836      11.276      10.748      10.298      9.9890      9.8781      9.9890      10.298    
  10.748      11.276      10.291      10.952      11.646      12.330      12.940      13.373      13.507      13.315    
  12.895      12.437      12.142      12.142      12.437      12.895      13.315      13.507      13.373      12.940    
  12.330      11.646      10.952      10.291      9.6822      9.1439      8.6978      8.3738      8.2022      8.2022    
  8.3738      8.6978      9.1438      9.6822      9.0026      9.7706      10.590      11.405      12.140      12.674    
  12.915      12.874      12.660      12.437      12.343      12.437      12.660      12.874      12.915      12.674    
  12.140      11.405      10.590      9.7706      9.0026      8.3178      7.7328      7.2582      6.9051      6.6861    
  6.6117      6.6861      6.9051      7.2582      7.7328      8.3178      8.0047      8.8774      9.8140      10.755    
  11.619      12.289      12.701      12.874      12.895      12.871      12.871      12.895      12.874      12.701    
  12.289      11.619      10.755      9.8140      8.8774      8.0047      7.2341      6.5845      6.0624      5.6692    
  5.4055      5.2730      5.2730      5.4055      5.6691      6.0624      6.5845      7.2341      7.3008      8.2801    
  9.3387      10.418      11.437      12.289      12.915      13.315      13.526      13.591      13.526      13.315    
  12.915      12.289      11.437      10.418      9.3387      8.2801      7.3008      6.4402      5.7181      5.1387    
  4.6977      4.3882      4.2048      4.1439      4.2047      4.3882      4.6977      5.1387      5.7181      6.4402    
  6.8837      7.9811      9.1785      10.418      11.619      12.674      13.507      14.075      14.361      14.361    
  14.075      13.507      12.674      11.619      10.418      9.1785      7.9811      6.8837      5.9248      5.1229    
  4.4794      3.9856      3.6290      3.3979      3.2843      3.2843      3.3979      3.6290      3.9856      4.4794    
  5.1228      5.9248      6.7457      7.9811      9.3387      10.755      12.140      13.373      14.343      14.961    
  15.173      14.961      14.343      13.373      12.140      10.755      9.3387      7.9811      6.7457      5.6721    
  4.7775      4.0604      3.5075      3.1008      2.8231      2.6615      2.6085      2.6615      2.8231      3.1008    
  3.5075      4.0604      4.7775      5.6721      6.8837      8.2801      9.8140      11.405      12.940      14.276    
  15.266      15.793      15.793      15.266      14.276      12.940      11.405      9.8140      8.2801      6.8837    
  5.6721      4.6646      3.8579      3.2346      2.7711      2.4445      2.2364      2.1351      2.1351      2.2364    
  2.4444      2.7711      3.2346      3.8579      4.6646      5.6722      7.3008      8.8774      10.590      12.330    
  13.952      15.286      16.168      16.476      16.168      15.286      13.952      12.330      10.590      8.8774    
  7.3008      5.9248      4.7775      3.8579      3.1461      2.6134      2.2307      1.9736      1.8256      1.7772    
  1.8256      1.9736      2.2307      2.6134      3.1461      3.8579      4.7775      5.9248      8.0047      9.7706    
  11.646      13.489      15.122      16.352      17.015      17.015      16.352      15.122      13.489      11.646    
  9.7706      8.0047      6.4402      5.1229      4.0604      3.2346      2.6134      2.1616      1.8484      1.6511    
  1.5556      1.5556      1.6511      1.8484      2.1617      2.6134      3.2346      4.0604      5.1228      6.4402    
  9.0026      10.952      12.959      14.846      16.407      17.444      17.808      17.444      16.407      14.846    
  12.959      10.952      9.0026      7.2341      5.7181      4.4794      3.5075      2.7711      2.2307      1.8484    
  1.5947      1.4496      1.4024      1.4496      1.5947      1.8484      2.2307      2.7711      3.5075      4.4794    
  5.7181      7.2341      10.291      12.401      14.490      16.352      17.761      18.523      18.523      17.761    
  16.352      14.490      12.401      10.291      8.3178      6.5845      5.1387      3.9856      3.1008      2.4445    
  1.9736      1.6511      1.4496      1.3527      1.3527      1.4496      1.6511      1.9736      2.4444      3.1008    
  3.9857      5.1388      6.5845      8.3178      11.836      14.061      16.168      17.918      19.082      19.490    
  19.082      17.918      16.168      14.061      11.836      9.6822      7.7328      6.0624      4.6977      3.6290    
  2.8231      2.2364      1.8256      1.5556      1.4024      1.3527      1.4024      1.5556      1.8256      2.2364    
  2.8231      3.6290      4.6977      6.0624      7.7328      9.6822      13.552      15.793      17.772      19.257    
  20.054      20.054      19.257      17.772      15.793      13.552      11.276      9.1439      7.2582      5.6692    
  4.3882      3.3979      2.6615      2.1351      1.7772      1.5556      1.4496      1.4496      1.5556      1.7772    
  2.1351      2.6615      3.3979      4.3882      5.6691      7.2582      9.1438      11.276      15.173      17.190    
  18.817      19.878      20.246      19.878      18.817      17.190      15.173      12.962      10.748      8.6978    
  6.9051      5.4055      4.2048      3.2843      2.6085      2.1351      1.8256      1.6511      1.5947      1.6511    
  1.8256      2.1351      2.6085      3.2843      4.2048      5.4055      6.9051      8.6978      10.748      12.962    
  16.189      17.699      18.777      19.339      19.339      18.777      17.699      16.189      14.361      12.347    
  10.298      8.3738      6.6861      5.2730      4.1439      3.2843      2.6615      2.2364      1.9736      1.8484    
  1.8484      1.9736      2.2364      2.6615      3.2843      4.1439      5.2730      6.6862      8.3738      10.298    
  12.347      14.361      16.079      16.846      17.289      17.434      17.289      16.846      16.079      14.968    
  13.526      11.822      9.9890      8.2022      6.6117      5.2730      4.2047      3.3979      2.8231      2.4444    
  2.2307      2.1617      2.2307      2.4444      2.8231      3.3979      4.2048      5.2730      6.6117      8.2022    
  9.9890      11.822      13.526      14.968      14.493      14.430      14.343      14.343      14.430      14.493    
  14.358      13.854      12.895      11.518      9.8781      8.2022      6.6861      5.4055      4.3882      3.6290    
  3.1008      2.7711      2.6134      2.6134      2.7711      3.1008      3.6290      4.3882      5.4055      6.6862    
  8.2022      9.8781      11.518      12.895      13.854      14.358      11.442      10.687      10.396      10.687    
  11.442      12.354      13.040      13.189      12.660      11.518      9.9890      8.3738      6.9051      5.6691    
  4.6977      3.9856      3.5075      3.2346      3.1461      3.2346      3.5075      3.9857      4.6977      5.6691    
  6.9051      8.3738      9.9890      11.518      12.660      13.189      13.040      12.354      7.4027      6.3424    
  6.3424      7.4027      9.1706      11.077      12.547      13.189      12.895      11.822      10.298      8.6978    
  7.2582      6.0624      5.1387      4.4794      4.0604      3.8579      3.8579      4.0604      4.4794      5.1388    
  6.0624      7.2582      8.6978      10.298      11.822      12.895      13.189      12.547      11.077      9.1706    
  3.2867      2.4795      3.2866      5.4541      8.3215      11.077      13.040      13.854      13.526      12.347    
  10.748      9.1438      7.7328      6.5845      5.7181      5.1228      4.7775      4.6646      4.7775      5.1228    
  5.7181      6.5845      7.7328      9.1438      10.748      12.347      13.526      13.854      13.040      11.077    
  8.3215      5.4541     0.19900     0.19895      2.1483      5.4541      9.1706      12.354      14.358      14.968    
  14.361      12.962      11.276      9.6822      8.3178      7.2341      6.4402      5.9248      5.6721      5.6722    
  5.9248      6.4402      7.2341      8.3178      9.6822      11.276      12.962      14.361      14.968      14.358    
  12.354      9.1706      5.4541      2.1484     0.19899      2.4796      6.3425      10.687      14.430      16.846    
  17.699      17.190      15.793      14.061      12.401      10.952      9.7706      8.8774      8.2801      7.9811    
  7.9811      8.2801      8.8774      9.7706      10.952      12.401      14.061      15.793      17.190      17.699    
  16.846      14.430      10.687      6.3424      2.4795     0.19895      2.4796      5.7113      10.004      14.197    
  17.351      18.986      19.109      18.091      16.476      14.770      13.209      11.870      10.791      9.9978    
  9.5114      9.3473      9.5114      9.9978      10.791      11.870      13.209      14.770      16.476      18.091    
  19.109      18.986      17.351      14.197      10.004      5.7112      2.4795      1.2762      6.3425      10.004    
  14.096      17.587      19.798      20.524      19.980      18.636      17.015      15.447      14.032      12.819    
  11.849      11.165      10.810      10.810      11.165      11.849      12.819      14.032      15.447      17.015    
  18.636      19.980      20.524      19.798      17.587      14.096      10.004      6.3424      4.1734      4.1734    
  10.687      14.197      17.587      20.076      21.277      21.227      20.272      18.886      17.444      16.070    
  14.815      13.722      12.849      12.276      12.075      12.276      12.849      13.722      14.815      16.070    
  17.444      18.886      20.272      21.227      21.277      20.076      17.587      14.197      10.687      8.0281    
  7.0357      8.0281      14.430      17.351      19.798      21.277      21.664      21.156      20.134      18.957    
  17.761      16.585      15.451      14.419      13.613      13.165      13.166      13.613      14.419      15.451    
  16.585      17.761      18.957      20.134      21.156      21.664      21.277      19.798      17.351      14.430    
  11.794      10.227      10.227      11.794      16.846      18.986      20.524      21.227      21.156      20.573    
  19.776      18.886      17.918      16.854      15.739      14.718      13.990      13.725      13.990      14.718    
  15.739      16.854      17.918      18.886      19.776      20.573      21.156      21.227      20.524      18.986    
  16.846      14.609      12.909      12.273      12.909      14.609      17.699      19.109      19.980      20.272    
  20.134      19.776      19.281      18.636      17.772      16.691      15.531      14.533      13.953      13.953    
  14.533      15.531      16.691      17.772      18.636      19.281      19.776      20.134      20.272      19.980    
  19.109      17.699      16.020      14.507      13.608      13.608      14.507      16.020      17.190      18.091    
  18.636      18.886      18.957      18.886      18.636      18.091      17.190      16.024      14.838      13.947    
  13.615      13.947      14.838      16.025      17.190      18.091      18.636      18.886      18.957      18.886    
  18.636      18.091      17.190      16.025      14.838      13.947      13.615      13.947      14.838      16.024    
  15.793      16.476      17.015      17.444      17.761      17.918      17.772      17.190      16.189      14.968    
  13.854      13.189      13.189      13.854      14.968      16.189      17.190      17.772      17.918      17.761    
  17.444      17.015      16.476      15.793      14.961      14.075      13.315      12.874      12.874      13.315    
  14.075      14.961      14.061      14.770      15.447      16.070      16.585      16.854      16.691      16.024    
  14.968      13.806      12.903      12.563      12.903      13.806      14.968      16.025      16.691      16.854    
  16.585      16.070      15.447      14.770      14.061      13.335      12.620      11.987      11.543      11.382    
  11.543      11.987      12.620      13.335      12.401      13.209      14.032      14.815      15.451      15.739    
  15.531      14.838      13.854      12.903      12.321      12.321      12.903      13.854      14.838      15.531    
  15.739      15.451      14.815      14.032      13.209      12.401      11.638      10.944      10.354      9.9167    
  9.6815      9.6815      9.9167      10.354      10.944      11.638      10.952      11.870      12.819      13.722    
  14.419      14.718      14.533      13.947      13.189      12.563      12.321      12.563      13.189      13.947    
  14.533      14.718      14.419      13.722      12.819      11.870      10.952      10.115      9.3825      8.7755    
  8.3154      8.0260      7.9271      8.0261      8.3154      8.7755      9.3825      10.115      9.7706      10.791    
  11.849      12.849      13.613      13.990      13.953      13.615      13.189      12.903      12.903      13.189    
  13.615      13.953      13.990      13.613      12.849      11.849      10.791      9.7706      8.8473      8.0534    
  7.4043      6.9078      6.5710      6.4004      6.4004      6.5710      6.9078      7.4043      8.0534      8.8473    
  8.8774      9.9978      11.165      12.276      13.165      13.725      13.953      13.947      13.854      13.806    
  13.854      13.947      13.953      13.725      13.166      12.276      11.165      9.9978      8.8774      7.8665    
  7.0014      6.2966      5.7537      5.3695      5.1403      5.0641      5.1403      5.3694      5.7537      6.2966    
  7.0014      7.8666      8.2801      9.5114      10.810      12.075      13.166      13.990      14.533      14.838    
  14.968      14.968      14.838      14.533      13.990      13.166      12.075      10.810      9.5114      8.2801    
  7.1754      6.2325      5.4647      4.8693      4.4364      4.1549      4.0163      4.0163      4.1549      4.4364    
  4.8693      5.4647      6.2325      7.1754      7.9811      9.3473      10.810      12.276      13.613      14.718    
  15.531      16.025      16.189      16.025      15.531      14.718      13.613      12.276      10.810      9.3473    
  7.9811      6.7661      5.7340      4.8945      4.2409      3.7573      3.4264      3.2337      3.1705      3.2337    
  3.4264      3.7573      4.2409      4.8945      5.7340      6.7661      7.9811      9.5114      11.165      12.849    
  14.419      15.739      16.691      17.190      17.190      16.691      15.739      14.419      12.849      11.165    
  9.5114      7.9811      6.6307      5.4898      4.5643      3.8425      3.3030      2.9221      2.6796      2.5617    
  2.5617      2.6796      2.9221      3.3030      3.8425      4.5643      5.4898      6.6307      8.2801      9.9978    
  11.849      13.722      15.451      16.854      17.772      18.091      17.772      16.854      15.451      13.722    
  11.849      9.9978      8.2801      6.7661      5.4898      4.4563      3.6502      3.0441      2.6080      2.3153    
  2.1471      2.0922      2.1471      2.3153      2.6079      3.0441      3.6502      4.4564      5.4898      6.7661    
  8.8774      10.791      12.819      14.815      16.585      17.918      18.636      18.636      17.918      16.585    
  14.815      12.819      10.791      8.8774      7.1754      5.7340      4.5643      3.6502      2.9601      2.4577    
  2.1097      1.8908      1.7851      1.7851      1.8908      2.1097      2.4577      2.9601      3.6502      4.5643    
  5.7340      7.1754      9.7706      11.870      14.032      16.070      17.761      18.886      19.281      18.886    
  17.761      16.070      14.032      11.870      9.7706      7.8665      6.2325      4.8945      3.8425      3.0441    
  2.4577      2.0433      1.7686      1.6117      1.5607      1.6117      1.7686      2.0433      2.4577      3.0441    
  3.8425      4.8945      6.2325      7.8666      10.952      13.209      15.447      17.444      18.957      19.776    
  19.776      18.957      17.444      15.447      13.209      10.952      8.8473      7.0014      5.4647      4.2409    
  3.3030      2.6080      2.1097      1.7686      1.5556      1.4532      1.4532      1.5556      1.7686      2.1097    
  2.6080      3.3030      4.2409      5.4647      7.0014      8.8473      12.401      14.770      17.015      18.886    
  20.134      20.573      20.134      18.886      17.015      14.770      12.401      10.115      8.0534      6.2966    
  4.8693      3.7573      2.9221      2.3153      1.8908      1.6117      1.4532      1.4018      1.4532      1.6117    
  1.8908      2.3153      2.9221      3.7573      4.8693      6.2966      8.0534      10.115      14.061      16.476    
  18.636      20.272      21.156      21.156      20.272      18.636      16.476      14.061      11.638      9.3825    
  7.4043      5.7537      4.4364      3.4264      2.6796      2.1471      1.7851      1.5607      1.4532      1.4532    
  1.5607      1.7851      2.1471      2.6796      3.4264      4.4364      5.7537      7.4043      9.3825      11.638    
  15.793      18.091      19.980      21.227      21.664      21.227      19.980      18.091      15.793      13.335    
  10.944      8.7755      6.9078      5.3695      4.1549      3.2337      2.5617      2.0922      1.7851      1.6117    
  1.5556      1.6117      1.7851      2.0922      2.5617      3.2337      4.1549      5.3695      6.9078      8.7755    
  10.944      13.335      17.190      19.109      20.524      21.277      21.277      20.524      19.109      17.190    
  14.961      12.620      10.354      8.3154      6.5710      5.1403      4.0163      3.1705      2.5617      2.1471    
  1.8908      1.7686      1.7686      1.8908      2.1471      2.5617      3.1705      4.0163      5.1403      6.5710    
  8.3154      10.354      12.620      14.961      17.699      18.986      19.798      20.076      19.798      18.986    
  17.699      16.025      14.075      11.987      9.9167      8.0260      6.4004      5.0641      4.0163      3.2337    
  2.6796      2.3153      2.1097      2.0433      2.1097      2.3153      2.6796      3.2337      4.0163      5.0641    
  6.4004      8.0261      9.9168      11.986      14.075      16.024      16.846      17.351      17.587      17.587    
  17.351      16.846      16.020      14.838      13.315      11.543      9.6815      7.9271      6.4004      5.1403    
  4.1549      3.4264      2.9221      2.6079      2.4577      2.4577      2.6080      2.9221      3.4264      4.1549    
  5.1403      6.4004      7.9271      9.6815      11.543      13.315      14.838      16.020      14.430      14.197    
  14.096      14.197      14.430      14.609      14.507      13.947      12.874      11.382      9.6815      8.0261    
  6.5710      5.3694      4.4364      3.7573      3.3030      3.0441      2.9601      3.0441      3.3030      3.7573    
  4.4364      5.3695      6.5710      8.0261      9.6815      11.382      12.874      13.947      14.507      14.609    
  10.687      10.004      10.004      10.687      11.794      12.909      13.608      13.615      12.874      11.543    
  9.9167      8.3154      6.9078      5.7537      4.8693      4.2409      3.8425      3.6502      3.6502      3.8425    
  4.2409      4.8693      5.7537      6.9078      8.3154      9.9168      11.543      12.874      13.615      13.608    
  12.909      11.794      6.3424      5.7112      6.3424      8.0281      10.227      12.273      13.608      13.947    
  13.315      11.987      10.354      8.7755      7.4043      6.2966      5.4647      4.8945      4.5643      4.4564    
  4.5643      4.8945      5.4647      6.2966      7.4043      8.7755      10.354      11.986      13.315      13.947    
  13.608      12.273      10.227      8.0281      2.4795      2.4795      4.1734      7.0357      10.227      12.909    
  14.507      14.838      14.075      12.620      10.944      9.3825      8.0534      7.0014      6.2325      5.7340    
  5.4898      5.4898      5.7340      6.2325      7.0014      8.0534      9.3825      10.944      12.620      14.075    
  14.838      14.507      12.909      10.227      7.0357      4.1734     0.19895      1.2762      4.1734      8.0281    
  11.794      14.609      16.020      16.024      14.961      13.335      11.638      10.115      8.8473      7.8666    
  7.1754      6.7661      6.6307      6.7661      7.1754      7.8666      8.8473      10.115      11.638      13.335    
  14.961      16.024      16.020      14.609      11.794      8.0281      4.1734      1.2762      3.2867      6.3425    
  10.396      14.343      17.289      18.777      18.817      17.772      16.168      14.490      12.959      11.646    
  10.590      9.8140      9.3387      9.1785      9.3387      9.8140      10.590      11.646      12.959      14.490    
  16.168      17.772      18.817      18.777      17.289      14.343      10.396      6.3424      3.2866      2.1483    
  6.3425      10.004      14.096      17.587      19.798      20.524      19.980      18.636      17.015      15.447    
  14.032      12.819      11.849      11.165      10.810      10.810      11.165      11.849      12.819      14.032    
  15.447      17.015      18.636      19.980      20.524      19.798      17.587      14.096      10.004      6.3424    
  4.1734      4.1734      10.396      14.096      17.679      20.326      21.634      21.637      20.689      19.281    
  17.808      16.403      15.117      13.995      13.096      12.504      12.297      12.504      13.096      13.995    
  15.117      16.403      17.808      19.281      20.689      21.637      21.634      20.326      17.679      14.096    
  10.396      7.5963      6.5517      7.5963      14.343      17.587      20.326      22.020      22.527      22.055    
  21.006      19.776      18.523      17.286      16.081      14.978      14.110      13.628      13.628      14.110    
  14.978      16.081      17.286      18.523      19.776      21.006      22.055      22.527      22.020      20.326    
  17.587      14.343      11.426      9.6936      9.6935      11.426      17.289      19.798      21.634      22.527    
  22.535      21.942      21.090      20.134      19.082      17.902      16.651      15.498      14.674      14.374    
  14.674      15.498      16.651      17.902      19.082      20.134      21.090      21.942      22.535      22.527    
  21.634      19.798      17.289      14.686      12.714      11.977      12.714      14.686      18.777      20.524    
  21.637      22.055      21.942      21.552      21.006      20.272      19.257      17.971      16.585      15.392    
  14.698      14.698      15.392      16.585      17.971      19.257      20.272      21.006      21.552      21.942    
  22.055      21.637      20.524      18.777      16.722      14.880      13.789      13.789      14.880      16.722    
  18.817      19.980      20.689      21.006      21.090      21.006      20.689      19.980      18.817      17.325    
  15.815      14.684      14.263      14.684      15.815      17.325      18.817      19.980      20.689      21.006    
  21.090      21.006      20.689      19.980      18.817      17.325      15.815      14.684      14.263      14.684    
  15.815      17.325      17.772      18.636      19.281      19.776      20.134      20.272      19.980      19.109    
  17.699      16.020      14.507      13.608      13.608      14.507      16.020      17.699      19.109      19.980    
  20.272      20.134      19.776      19.281      18.636      17.772      16.691      15.531      14.533      13.953    
  13.953      14.533      15.531      16.691      16.168      17.015      17.808      18.523      19.082      19.257    
  18.817      17.699      16.079      14.358      13.040      12.547      13.040      14.358      16.079      17.699    
  18.817      19.257      19.082      18.523      17.808      17.015      16.168      15.266      14.343      13.507    
  12.915      12.701      12.915      13.507      14.343      15.266      14.490      15.447      16.403      17.286    
  17.902      17.971      17.325      16.020      14.358      12.818      11.892      11.892      12.818      14.358    
  16.020      17.325      17.971      17.902      17.286      16.403      15.447      14.490      13.568      12.712    
  11.966      11.398      11.088      11.088      11.398      11.966      12.712      13.568      12.959      14.032    
  15.117      16.081      16.651      16.585      15.815      14.507      13.040      11.892      11.457      11.892    
  13.040      14.507      15.815      16.585      16.651      16.081      15.117      14.032      12.959      11.959    
  11.070      10.318      9.7395      9.3711      9.2443      9.3711      9.7395      10.318      11.070      11.959    
  11.646      12.819      13.995      14.978      15.498      15.392      14.684      13.608      12.547      11.892    
  11.892      12.547      13.608      14.684      15.392      15.499      14.978      13.995      12.819      11.646    
  10.560      9.6096      8.8199      8.2072      7.7865      7.5719      7.5719      7.7865      8.2072      8.8199    
  9.6096      10.560      10.590      11.849      13.096      14.110      14.674      14.698      14.263      13.608    
  13.040      12.818      13.040      13.608      14.263      14.698      14.674      14.110      13.096      11.849    