DFT Virtual Orbitals for Silicon        
   5.43000000000000     
     0.500000    0.500000    0.000000
     0.000000    0.500000    0.500000
     0.500000    0.000000    0.500000
   Si
     2
Direct
  0.000000  0.000000  0.000000
  0.250000  0.250000  0.250000
 
   32   32   32
 -.94824744374E+00 0.19899358125E+00 0.32866545591E+01 0.74026740255E+01 0.11442037175E+02
 0.14493463500E+02 0.16078669563E+02 0.16189477635E+02 0.15173148725E+02 0.13552052729E+02
 0.11835747054E+02 0.10290604669E+02 0.90026416516E+01 0.80046948355E+01 0.73007655448E+01
 0.68836709899E+01 0.67456696557E+01 0.68836648078E+01 0.73007629754E+01 0.80046991281E+01
 0.90026449079E+01 0.10290601758E+02 0.11835743161E+02 0.13552052860E+02 0.15173149152E+02
 0.16189473589E+02 0.16078664464E+02 0.14493464333E+02 0.11442044893E+02 0.74026835033E+01
 0.32866612949E+01 0.19899664496E+00 0.19899358125E+00 0.24795496634E+01 0.63424590248E+01
 0.10686680124E+02 0.14429889309E+02 0.16845643105E+02 0.17698690198E+02 0.17190097646E+02
 0.15793340303E+02 0.14061224016E+02 0.12401139773E+02 0.10952492215E+02 0.97706177536E+01
 0.88774193272E+01 0.82801355105E+01 0.79810946299E+01 0.79810787309E+01 0.82801126735E+01
 0.88774238129E+01 0.97706387033E+01 0.10952493346E+02 0.12401117961E+02 0.14061210386E+02
 0.15793347333E+02 0.17190104281E+02 0.17698687144E+02 0.16845654722E+02 0.14429927294E+02
 0.10686704423E+02 0.63424221701E+01 0.24794712837E+01 0.19895243414E+00 0.32866545591E+01
 0.63424590248E+01 0.10395695607E+02 0.14343231596E+02 0.17289097883E+02 0.18776534650E+02
 0.18817062180E+02 0.17771965333E+02 0.16167527952E+02 0.14490334943E+02 0.12958529914E+02
 0.11645734341E+02 0.10589535008E+02 0.98139502795E+01 0.93387417152E+01 0.91785129789E+01
 0.93387428812E+01 0.98139516347E+01 0.10589534867E+02 0.11645732972E+02 0.12958530426E+02
 0.14490338206E+02 0.16167529154E+02 0.17771960587E+02 0.18817056282E+02 0.18776535790E+02
 0.17289105520E+02 0.14343236224E+02 0.10395690966E+02 0.63424488882E+01 0.32866470008E+01
 0.21483325336E+01 0.74026740255E+01 0.10686680124E+02 0.14343231596E+02 0.17433540432E+02
 0.19338730955E+02 0.19877563580E+02 0.19256535879E+02 0.17918229765E+02 0.16351845821E+02
 0.14845512851E+02 0.13489166288E+02 0.12329809818E+02 0.11404984928E+02 0.10754977406E+02
 0.10418075624E+02 0.10418086430E+02 0.10754994267E+02 0.11404985117E+02 0.12329797772E+02
 0.13489164922E+02 0.14845526693E+02 0.16351854941E+02 0.17918222730E+02 0.19256526097E+02
 0.19877562108E+02 0.19338724612E+02 0.17433518244E+02 0.14343217614E+02 0.10686708534E+02
 0.74027326733E+01 0.54540869685E+01 0.54540560497E+01 0.11442037175E+02 0.14429889309E+02
 0.17289097883E+02 0.19338730955E+02 0.20246290365E+02 0.20054149907E+02 0.19081616128E+02
 0.17761228345E+02 0.16407397517E+02 0.15121744393E+02 0.13951943653E+02 0.12940140363E+02
 0.12139964763E+02 0.11618523508E+02 0.11436591637E+02 0.11618527178E+02 0.12139967344E+02
 0.12940139009E+02 0.13951940952E+02 0.15121743982E+02 0.16407398889E+02 0.17761228404E+02
 0.19081614228E+02 0.20054148364E+02 0.20246290482E+02 0.19338731670E+02 0.17289098993E+02
 0.14429892928E+02 0.11442043938E+02 0.91705746361E+01 0.83215078242E+01 0.91705687223E+01
 0.14493463500E+02 0.16845643105E+02 0.18776534650E+02 0.19877563580E+02 0.20054149907E+02
 0.19489894580E+02 0.18523217573E+02 0.17443943576E+02 0.16351847319E+02 0.15286053399E+02
 0.14276399857E+02 0.13373453768E+02 0.12674393612E+02 0.12288975958E+02 0.12288972545E+02
 0.12674388650E+02 0.13373454375E+02 0.14276403038E+02 0.15286050784E+02 0.16351839606E+02
 0.17443940727E+02 0.18523223153E+02 0.19489900131E+02 0.20054150274E+02 0.19877567254E+02
 0.18776547728E+02 0.16845651064E+02 0.14493446331E+02 0.12353642977E+02 0.11076949212E+02
 0.11076967544E+02 0.12353677859E+02 0.16078669563E+02 0.17698690198E+02 0.18817062180E+02
 0.19256535879E+02 0.19081616128E+02 0.18523217573E+02 0.17807625620E+02 0.17014840755E+02
 0.16167527952E+02 0.15266241134E+02 0.14342643236E+02 0.13507327153E+02 0.12915426500E+02
 0.12700634989E+02 0.12915430347E+02 0.13507332835E+02 0.14342647857E+02 0.15266242073E+02
 0.16167524802E+02 0.17014837029E+02 0.17807625673E+02 0.18523220334E+02 0.19081616009E+02
 0.19256532148E+02 0.18817061390E+02 0.17698694642E+02 0.16078670326E+02 0.14357871057E+02
 0.13040392243E+02 0.12546665934E+02 0.13040404787E+02 0.14357881245E+02 0.16189477635E+02
 0.17190097646E+02 0.17771965333E+02 0.17918229765E+02 0.17761228345E+02 0.17443943576E+02
 0.17014840755E+02 0.16475938052E+02 0.15793338805E+02 0.14960817439E+02 0.14075041049E+02
 0.13315313555E+02 0.12873857483E+02 0.12873864736E+02 0.13315327955E+02 0.14075050424E+02
 0.14960819217E+02 0.15793338569E+02 0.16475938547E+02 0.17014839324E+02 0.17443938156E+02
 0.17761220587E+02 0.17918223619E+02 0.17771965273E+02 0.17190105070E+02 0.16189486676E+02
 0.14968090744E+02 0.13854313040E+02 0.13189156779E+02 0.13189160914E+02 0.13854319087E+02
 0.14968089002E+02 0.15173148725E+02 0.15793340303E+02 0.16167527952E+02 0.16351845821E+02
 0.16407397517E+02 0.16351847319E+02 0.16167527952E+02 0.15793338805E+02 0.15173148725E+02
 0.14360933090E+02 0.13526226163E+02 0.12895454191E+02 0.12660264893E+02 0.12895462723E+02
 0.13526233113E+02 0.14360932907E+02 0.15173145993E+02 0.15793338253E+02 0.16167528094E+02
 0.16351846478E+02 0.16407397884E+02 0.16351847976E+02 0.16167528094E+02 0.15793336755E+02
 0.15173145993E+02 0.14360934405E+02 0.13526233113E+02 0.12895461225E+02 0.12660264893E+02
 0.12895455689E+02 0.13526226163E+02 0.14360931593E+02 0.13552052729E+02 0.14061224016E+02
 0.14490334943E+02 0.14845512851E+02 0.15121744393E+02 0.15286053399E+02 0.15266241134E+02
 0.14960817439E+02 0.14360933090E+02 0.13590547003E+02 0.12871028815E+02 0.12436532785E+02
 0.12436532894E+02 0.12871027657E+02 0.13590543669E+02 0.14360930020E+02 0.14960815840E+02
 0.15266239048E+02 0.15286052704E+02 0.15121752478E+02 0.14845529604E+02 0.14490344237E+02
 0.14061209848E+02 0.13552023211E+02 0.12962133790E+02 0.12346795533E+02 0.11822428330E+02
 0.11518279998E+02 0.11518262617E+02 0.11822393963E+02 0.12346778682E+02 0.12962149440E+02
 0.11835747054E+02 0.12401139773E+02 0.12958529914E+02 0.13489166288E+02 0.13951943653E+02
 0.14276399857E+02 0.14342643236E+02 0.14075041049E+02 0.13526226163E+02 0.12871028815E+02
 0.12343465920E+02 0.12141791236E+02 0.12343461474E+02 0.12871025657E+02 0.13526228798E+02
 0.14075046716E+02 0.14342644796E+02 0.14276395003E+02 0.13951938216E+02 0.13489166440E+02
 0.12958534199E+02 0.12401142228E+02 0.11835745600E+02 0.11275801284E+02 0.10748129980E+02
 0.10298238290E+02 0.99889766742E+01 0.98781395773E+01 0.99889788067E+01 0.10298240616E+02
 0.10748132111E+02 0.11275803955E+02 0.10290604669E+02 0.10952492215E+02 0.11645734341E+02
 0.12329809818E+02 0.12940140363E+02 0.13373453768E+02 0.13507327153E+02 0.13315313555E+02
 0.12895454191E+02 0.12436532785E+02 0.12141791236E+02 0.12141788108E+02 0.12436528284E+02
 0.12895456376E+02 0.13315323003E+02 0.13507336111E+02 0.13373454350E+02 0.12940130377E+02
 0.12329792779E+02 0.11645719434E+02 0.10952493220E+02 0.10290629259E+02 0.96821924785E+01
 0.91438528739E+01 0.86977815791E+01 0.83737906231E+01 0.82021580377E+01 0.82021823709E+01
 0.83738397547E+01 0.86978099894E+01 0.91438402222E+01 0.96821579959E+01 0.90026416516E+01
 0.97706177536E+01 0.10589535008E+02 0.11404984928E+02 0.12139964763E+02 0.12674393612E+02
 0.12915426500E+02 0.12873857483E+02 0.12660264893E+02 0.12436532894E+02 0.12343461474E+02
 0.12436528284E+02 0.12660259127E+02 0.12873854346E+02 0.12915427531E+02 0.12674397856E+02
 0.12139969479E+02 0.11404986849E+02 0.10589532836E+02 0.97706139763E+01 0.90026404869E+01
 0.83178245343E+01 0.77328100811E+01 0.72582109641E+01 0.69051319597E+01 0.66861207005E+01
 0.66117303662E+01 0.66861228075E+01 0.69051335134E+01 0.72582093896E+01 0.77328059952E+01
 0.83178216506E+01 0.80046948355E+01 0.88774193272E+01 0.98139502795E+01 0.10754977406E+02
 0.11618523508E+02 0.12288975958E+02 0.12700634989E+02 0.12873864736E+02 0.12895462723E+02
 0.12871027657E+02 0.12871025657E+02 0.12895456376E+02 0.12873854346E+02 0.12700624100E+02
 0.12288971550E+02 0.11618531412E+02 0.10754996211E+02 0.98139699865E+01 0.88774265651E+01
 0.80046811088E+01 0.72340523301E+01 0.65844859752E+01 0.60624249759E+01 0.56691644582E+01
 0.54055004520E+01 0.52729756883E+01 0.52729540156E+01 0.54054542588E+01 0.56691314754E+01
 0.60624270288E+01 0.65845146004E+01 0.72340830341E+01 0.73007655448E+01 0.82801355105E+01
 0.93387417152E+01 0.10418075624E+02 0.11436591637E+02 0.12288972545E+02 0.12915430347E+02
 0.13315327955E+02 0.13526233113E+02 0.13590543669E+02 0.13526228798E+02 0.13315323003E+02
 0.12915427531E+02 0.12288971550E+02 0.11436591405E+02 0.10418076230E+02 0.93387433739E+01
 0.82801376508E+01 0.73007671796E+01 0.64402205599E+01 0.57181326337E+01 0.51387264702E+01
 0.46976916978E+01 0.43882471716E+01 0.42047533627E+01 0.41439279378E+01 0.42047482700E+01
 0.43882431900E+01 0.46976930568E+01 0.51387309468E+01 0.57181357655E+01 0.64402207702E+01
 0.68836709899E+01 0.79810946299E+01 0.91785129789E+01 0.10418086430E+02 0.11618527178E+02
 0.12674388650E+02 0.13507332835E+02 0.14075050424E+02 0.14360932907E+02 0.14360930020E+02
 0.14075046716E+02 0.13507336111E+02 0.12674397856E+02 0.11618531412E+02 0.10418076230E+02
 0.91784915572E+01 0.79810777354E+01 0.68836747472E+01 0.59248284115E+01 0.51228691536E+01
 0.44794032733E+01 0.39856339523E+01 0.36289639167E+01 0.33978578312E+01 0.32842838607E+01
 0.32842953925E+01 0.33978870168E+01 0.36289951205E+01 0.39856474826E+01 0.44793892990E+01
 0.51228376749E+01 0.59248023335E+01 0.67456696557E+01 0.79810787309E+01 0.93387428812E+01
 0.10754994267E+02 0.12139967344E+02 0.13373454375E+02 0.14342647857E+02 0.14960819217E+02
 0.15173145993E+02 0.14960815840E+02 0.14342644796E+02 0.13373454350E+02 0.12139969479E+02
 0.10754996211E+02 0.93387433739E+01 0.79810777354E+01 0.67456680161E+01 0.56721441706E+01
 0.47775171070E+01 0.40604083081E+01 0.35075399736E+01 0.31008205270E+01 0.28231026186E+01
 0.26615065846E+01 0.26084588427E+01 0.26615097722E+01 0.28231066130E+01 0.31008220406E+01
 0.35075376460E+01 0.40604042583E+01 0.47775147220E+01 0.56721445746E+01 0.68836648078E+01
 0.82801126735E+01 0.98139516347E+01 0.11404985117E+02 0.12940139009E+02 0.14276403038E+02
 0.15266242073E+02 0.15793338569E+02 0.15793338253E+02 0.15266239048E+02 0.14276395003E+02
 0.12940130377E+02 0.11404986849E+02 0.98139699865E+01 0.82801376508E+01 0.68836747472E+01
 0.56721441706E+01 0.46645784953E+01 0.38578705427E+01 0.32346016550E+01 0.27711422904E+01
 0.24444545189E+01 0.22363616628E+01 0.21351025481E+01 0.21350998846E+01 0.22363502230E+01
 0.24444320183E+01 0.27711194617E+01 0.32345977581E+01 0.38578932751E+01 0.46646119354E+01
 0.56721618091E+01 0.73007629754E+01 0.88774238129E+01 0.10589534867E+02 0.12329797772E+02
 0.13951940952E+02 0.15286050784E+02 0.16167524802E+02 0.16475938547E+02 0.16167528094E+02
 0.15286052704E+02 0.13951938216E+02 0.12329792779E+02 0.10589532836E+02 0.88774265651E+01
 0.73007671796E+01 0.59248284115E+01 0.47775171070E+01 0.38578705427E+01 0.31460761916E+01
 0.26134186569E+01 0.22306576003E+01 0.19736117441E+01 0.18255592131E+01 0.17771830329E+01
 0.18255565790E+01 0.19736085107E+01 0.22306558133E+01 0.26134190977E+01 0.31460786967E+01
 0.38578740613E+01 0.47775192882E+01 0.59248269928E+01 0.80046991281E+01 0.97706387033E+01
 0.11645732972E+02 0.13489164922E+02 0.15121743982E+02 0.16351839606E+02 0.17014837029E+02
 0.17014839324E+02 0.16351846478E+02 0.15121752478E+02 0.13489166440E+02 0.11645719434E+02
 0.97706139763E+01 0.80046811088E+01 0.64402205599E+01 0.51228691536E+01 0.40604083081E+01
 0.32346016550E+01 0.26134186569E+01 0.21616495984E+01 0.18484319219E+01 0.16510576324E+01
 0.15555630206E+01 0.15555598481E+01 0.16510558875E+01 0.18484440652E+01 0.21616737387E+01
 0.26134355444E+01 0.32345932593E+01 0.40603778252E+01 0.51228398672E+01 0.64402143262E+01
 0.90026449079E+01 0.10952493346E+02 0.12958530426E+02 0.14845526693E+02 0.16407398889E+02
 0.17443940727E+02 0.17807625673E+02 0.17443938156E+02 0.16407397884E+02 0.14845529604E+02
 0.12958534199E+02 0.10952493220E+02 0.90026404869E+01 0.72340523301E+01 0.57181326337E+01
 0.44794032733E+01 0.35075399736E+01 0.27711422904E+01 0.22306576003E+01 0.18484319219E+01
 0.15947073039E+01 0.14496080089E+01 0.14023531343E+01 0.14496092008E+01 0.15947094027E+01
 0.18484342201E+01 0.22306587200E+01 0.27711406726E+01 0.35075356547E+01 0.44793991318E+01
 0.57181324293E+01 0.72340565213E+01 0.10290601758E+02 0.12401117961E+02 0.14490338206E+02
 0.16351854941E+02 0.17761228404E+02 0.18523223153E+02 0.18523220334E+02 0.17761220587E+02
 0.16351847976E+02 0.14490344237E+02 0.12401142228E+02 0.10290629259E+02 0.83178245343E+01
 0.65844859752E+01 0.51387264702E+01 0.39856339523E+01 0.31008205270E+01 0.24444545189E+01
 0.19736117441E+01 0.16510576324E+01 0.14496080089E+01 0.13526621777E+01 0.13526645849E+01
 0.14496122527E+01 0.16510557299E+01 0.19735969604E+01 0.24444323433E+01 0.31008102450E+01
 0.39856510370E+01 0.51387621437E+01 0.65845113487E+01 0.83178192386E+01 0.11835743161E+02
 0.14061210386E+02 0.16167529154E+02 0.17918222730E+02 0.19081614228E+02 0.19489900131E+02
 0.19081616009E+02 0.17918223619E+02 0.16167528094E+02 0.14061209848E+02 0.11835745600E+02
 0.96821924785E+01 0.77328100811E+01 0.60624249759E+01 0.46976916978E+01 0.36289639167E+01
 0.28231026186E+01 0.22363616628E+01 0.18255592131E+01 0.15555630206E+01 0.14023531343E+01
 0.13526645849E+01 0.14023524703E+01 0.15555615129E+01 0.18255570179E+01 0.22363598617E+01
 0.28231029886E+01 0.36289673645E+01 0.46976965722E+01 0.60624276953E+01 0.77328085047E+01
 0.96821884864E+01 0.13552052860E+02 0.15793347333E+02 0.17771960587E+02 0.19256526097E+02
 0.20054148364E+02 0.20054150274E+02 0.19256532148E+02 0.17771965273E+02 0.15793336755E+02
 0.13552023211E+02 0.11275801284E+02 0.91438528739E+01 0.72582109641E+01 0.56691644582E+01
 0.43882471716E+01 0.33978578312E+01 0.26615065846E+01 0.21351025481E+01 0.17771830329E+01
 0.15555598481E+01 0.14496092008E+01 0.14496122527E+01 0.15555615129E+01 0.17771768616E+01
 0.21351015091E+01 0.26615259351E+01 0.33978846840E+01 0.43882483883E+01 0.56691297315E+01
 0.72581712190E+01 0.91438453459E+01 0.11275827332E+02 0.15173149152E+02 0.17190104281E+02
 0.18817056282E+02 0.19877562108E+02 0.20246290482E+02 0.19877567254E+02 0.18817061390E+02
 0.17190105070E+02 0.15173145993E+02 0.12962133790E+02 0.10748129980E+02 0.86977815791E+01
 0.69051319597E+01 0.54055004520E+01 0.42047533627E+01 0.32842838607E+01 0.26084588427E+01
 0.21350998846E+01 0.18255565790E+01 0.16510558875E+01 0.15947094027E+01 0.16510557299E+01
 0.18255570179E+01 0.21351015091E+01 0.26084607464E+01 0.32842838507E+01 0.42047504308E+01
 0.54054964593E+01 0.69051298380E+01 0.86977825163E+01 0.10748133268E+02 0.12962138091E+02
 0.16189473589E+02 0.17698687144E+02 0.18776535790E+02 0.19338724612E+02 0.19338731670E+02
 0.18776547728E+02 0.17698694642E+02 0.16189486676E+02 0.14360934405E+02 0.12346795533E+02
 0.10298238290E+02 0.83737906231E+01 0.66861207005E+01 0.52729756883E+01 0.41439279378E+01
 0.32842953925E+01 0.26615097722E+01 0.22363502230E+01 0.19736085107E+01 0.18484440652E+01
 0.18484342201E+01 0.19735969604E+01 0.22363598617E+01 0.26615259351E+01 0.32842838507E+01
 0.41438905772E+01 0.52729573138E+01 0.66861502692E+01 0.83738400765E+01 0.10298258558E+02
 0.12346776885E+02 0.14360907531E+02 0.16078664464E+02 0.16845654722E+02 0.17289105520E+02
 0.17433518244E+02 0.17289098993E+02 0.16845651064E+02 0.16078670326E+02 0.14968090744E+02
 0.13526233113E+02 0.11822428330E+02 0.99889766742E+01 0.82021580377E+01 0.66117303662E+01
 0.52729540156E+01 0.42047482700E+01 0.33978870168E+01 0.28231066130E+01 0.24444320183E+01
 0.22306558133E+01 0.21616737387E+01 0.22306587200E+01 0.24444323433E+01 0.28231029886E+01
 0.33978846840E+01 0.42047504308E+01 0.52729573138E+01 0.66117317517E+01 0.82021600029E+01
 0.99889812609E+01 0.11822430782E+02 0.13526227543E+02 0.14968080053E+02 0.14493464333E+02
 0.14429927294E+02 0.14343236224E+02 0.14343217614E+02 0.14429892928E+02 0.14493446331E+02
 0.14357871057E+02 0.13854313040E+02 0.12895461225E+02 0.11518279998E+02 0.98781395773E+01
 0.82021823709E+01 0.66861228075E+01 0.54054542588E+01 0.43882431900E+01 0.36289951205E+01
 0.31008220406E+01 0.27711194617E+01 0.26134190977E+01 0.26134355444E+01 0.27711406726E+01
 0.31008102450E+01 0.36289673645E+01 0.43882483883E+01 0.54054964593E+01 0.66861502692E+01
 0.82021600029E+01 0.98780953229E+01 0.11518260368E+02 0.12895469887E+02 0.13854322082E+02
 0.14357874284E+02 0.11442044893E+02 0.10686704423E+02 0.10395690966E+02 0.10686708534E+02
 0.11442043938E+02 0.12353642977E+02 0.13040392243E+02 0.13189156779E+02 0.12660264893E+02
 0.11518262617E+02 0.99889788067E+01 0.83738397547E+01 0.69051335134E+01 0.56691314754E+01
 0.46976930568E+01 0.39856474826E+01 0.35075376460E+01 0.32345977581E+01 0.31460786967E+01
 0.32345932593E+01 0.35075356547E+01 0.39856510370E+01 0.46976965722E+01 0.56691297315E+01
 0.69051298380E+01 0.83738400765E+01 0.99889812609E+01 0.11518260368E+02 0.12660258473E+02
 0.13189155390E+02 0.13040400136E+02 0.12353651974E+02 0.74026835033E+01 0.63424221701E+01
 0.63424488882E+01 0.74027326733E+01 0.91705746361E+01 0.11076949212E+02 0.12546665934E+02
 0.13189160914E+02 0.12895455689E+02 0.11822393963E+02 0.10298240616E+02 0.86978099894E+01
 0.72582093896E+01 0.60624270288E+01 0.51387309468E+01 0.44793892990E+01 0.40604042583E+01
 0.38578932751E+01 0.38578740613E+01 0.40603778252E+01 0.44793991318E+01 0.51387621437E+01
 0.60624276953E+01 0.72581712190E+01 0.86977825163E+01 0.10298258558E+02 0.11822430782E+02
 0.12895469887E+02 0.13189155390E+02 0.12546668349E+02 0.11076954759E+02 0.91705516902E+01
 0.32866612949E+01 0.24794712837E+01 0.32866470008E+01 0.54540869685E+01 0.83215078242E+01
 0.11076967544E+02 0.13040404787E+02 0.13854319087E+02 0.13526226163E+02 0.12346778682E+02
 0.10748132111E+02 0.91438402222E+01 0.77328059952E+01 0.65845146004E+01 0.57181357655E+01
 0.51228376749E+01 0.47775147220E+01 0.46646119354E+01 0.47775192882E+01 0.51228398672E+01
 0.57181324293E+01 0.65845113487E+01 0.77328085047E+01 0.91438453459E+01 0.10748133268E+02
 0.12346776885E+02 0.13526227543E+02 0.13854322082E+02 0.13040400136E+02 0.11076954759E+02
 0.83215011767E+01 0.54540964750E+01 0.19899664496E+00 0.19895243414E+00 0.21483325336E+01
 0.54540560497E+01 0.91705687223E+01 0.12353677859E+02 0.14357881245E+02 0.14968089002E+02
 0.14360931593E+02 0.12962149440E+02 0.11275803955E+02 0.96821579959E+01 0.83178216506E+01
 0.72340830341E+01 0.64402207702E+01 0.59248023335E+01 0.56721445746E+01 0.56721618091E+01
 0.59248269928E+01 0.64402143262E+01 0.72340565213E+01 0.83178192386E+01 0.96821884864E+01
 0.11275827332E+02 0.12962138091E+02 0.14360907531E+02 0.14968080053E+02 0.14357874284E+02
 0.12353651974E+02 0.91705516902E+01 0.54540964750E+01 0.21484159211E+01 0.19899454803E+00
 0.24795500129E+01 0.63424586929E+01 0.10686679649E+02 0.14429888706E+02 0.16845641942E+02
 0.17698688707E+02 0.17190096587E+02 0.15793339772E+02 0.14061223511E+02 0.12401139337E+02
 0.10952492365E+02 0.97706183586E+01 0.88774197241E+01 0.82801356635E+01 0.79810950497E+01
 0.79810793307E+01 0.82801128569E+01 0.88774236174E+01 0.97706387090E+01 0.10952493528E+02
 0.12401117776E+02 0.14061209918E+02 0.15793347198E+02 0.17190104482E+02 0.17698687155E+02
 0.16845654631E+02 0.14429927702E+02 0.10686705294E+02 0.63424229040E+01 0.24794718540E+01
 0.19895329808E+00 0.24795500129E+01 0.57113431863E+01 0.10003624295E+02 0.14197096332E+02
 0.17351204669E+02 0.18985753539E+02 0.19108756983E+02 0.18091306065E+02 0.16475939899E+02
 0.14770034455E+02 0.13209204426E+02 0.11869855861E+02 0.10790975128E+02 0.99978170180E+01
 0.95113946075E+01 0.93473029717E+01 0.95113977507E+01 0.99978174844E+01 0.10790969558E+02
 0.11869848280E+02 0.13209199708E+02 0.14770029344E+02 0.16475928169E+02 0.18091295139E+02
 0.19108770036E+02 0.18985803254E+02 0.17351265552E+02 0.14197115374E+02 0.10003568987E+02
 0.57112393810E+01 0.24794682808E+01 0.12762192560E+01 0.63424586929E+01 0.10003624295E+02
 0.14095946160E+02 0.17587353890E+02 0.19797856243E+02 0.20523913968E+02 0.19980338419E+02
 0.18635877241E+02 0.17014840423E+02 0.15447096639E+02 0.14032151688E+02 0.12819423756E+02
 0.11849150001E+02 0.11165368167E+02 0.10810175716E+02 0.10810190205E+02 0.11165391186E+02
 0.11849150739E+02 0.12819405495E+02 0.14032142715E+02 0.15447104740E+02 0.17014843835E+02
 0.18635864820E+02 0.19980332530E+02 0.20523937031E+02 0.19797891787E+02 0.17587363233E+02
 0.14095917227E+02 0.10003582748E+02 0.63424319986E+01 0.41733934045E+01 0.41734010082E+01
 0.10686679649E+02 0.14197096332E+02 0.17587353890E+02 0.20075714302E+02 0.21277026728E+02
 0.21227381274E+02 0.20271921669E+02 0.18885613965E+02 0.17443941604E+02 0.16070308045E+02
 0.14814785356E+02 0.13721533869E+02 0.12848615999E+02 0.12275920308E+02 0.12075454256E+02
 0.12275942409E+02 0.12848639117E+02 0.13721540777E+02 0.14814778103E+02 0.16070297900E+02
 0.17443935162E+02 0.18885613733E+02 0.20271929298E+02 0.21227391100E+02 0.21277024009E+02
 0.20075692425E+02 0.17587330970E+02 0.14197101201E+02 0.10686716552E+02 0.80281397868E+01
 0.70357406284E+01 0.80281030902E+01 0.14429888706E+02 0.17351204669E+02 0.19797856243E+02
 0.21277026728E+02 0.21663715768E+02 0.21155917562E+02 0.20133693534E+02 0.18957299585E+02
 0.17761227742E+02 0.16584927975E+02 0.15450599976E+02 0.14419387224E+02 0.13612692144E+02
 0.13165490262E+02 0.13165500082E+02 0.13612716024E+02 0.14419411014E+02 0.15450608355E+02
 0.16584914888E+02 0.17761203517E+02 0.18957284698E+02 0.20133699389E+02 0.21155934280E+02
 0.21663724507E+02 0.21277022402E+02 0.19797850207E+02 0.17351205843E+02 0.14429892943E+02
 0.11794399352E+02 0.10227313492E+02 0.10227314182E+02 0.11794398415E+02 0.16845641942E+02
 0.18985753539E+02 0.20523913968E+02 0.21227381274E+02 0.21155917562E+02 0.20572813391E+02
 0.19775992955E+02 0.18885614774E+02 0.17918230100E+02 0.16854358603E+02 0.15739068544E+02
 0.14717970003E+02 0.13990040127E+02 0.13725235947E+02 0.13990062462E+02 0.14717998537E+02
 0.15739084318E+02 0.16854353157E+02 0.17918209397E+02 0.18885593959E+02 0.19775985161E+02
 0.20572819963E+02 0.21155930439E+02 0.21227395055E+02 0.20523928551E+02 0.18985762273E+02
 0.16845629554E+02 0.14608977389E+02 0.12908651010E+02 0.12273184064E+02 0.12908684554E+02
 0.14609013252E+02 0.17698688707E+02 0.19108756983E+02 0.19980338419E+02 0.20271921669E+02
 0.20133693534E+02 0.19775992955E+02 0.19280560435E+02 0.18635876082E+02 0.17771963842E+02
 0.16691144242E+02 0.15531074688E+02 0.14533339506E+02 0.13953110457E+02 0.13953129447E+02
 0.14533379015E+02 0.15531102911E+02 0.16691148073E+02 0.17771952857E+02 0.18635862767E+02
 0.19280549580E+02 0.19775986621E+02 0.20133693346E+02 0.20271924749E+02 0.19980339225E+02
 0.19108754687E+02 0.17698687641E+02 0.16020004385E+02 0.14507016234E+02 0.13608177508E+02
 0.13608175595E+02 0.14507012044E+02 0.16020001656E+02 0.17190096587E+02 0.18091306065E+02
 0.18635877241E+02 0.18885613965E+02 0.18957299585E+02 0.18885614774E+02 0.18635876082E+02
 0.18091303158E+02 0.17190095089E+02 0.16024496547E+02 0.14838070083E+02 0.13946601315E+02
 0.13615063704E+02 0.13946629970E+02 0.14838102611E+02 0.16024512840E+02 0.17190096630E+02
 0.18091299588E+02 0.18635869501E+02 0.18885603826E+02 0.18957287812E+02 0.18885605133E+02
 0.18635869229E+02 0.18091297772E+02 0.17190096231E+02 0.16024513929E+02 0.14838102367E+02
 0.13946628484E+02 0.13615063970E+02 0.13946603397E+02 0.14838071089E+02 0.16024496418E+02
 0.15793339772E+02 0.16475939899E+02 0.17014840423E+02 0.17443941604E+02 0.17761227742E+02
 0.17918230100E+02 0.17771963842E+02 0.17190095089E+02 0.16189477104E+02 0.14968089995E+02
 0.13854318651E+02 0.13189159566E+02 0.13189157384E+02 0.13854314934E+02 0.14968090897E+02
 0.16189485598E+02 0.17190105670E+02 0.17771966954E+02 0.17918223423E+02 0.17761219095E+02
 0.17443938338E+02 0.17014840638E+02 0.16475938078E+02 0.15793336936E+02 0.14960819418E+02
 0.14075051933E+02 0.13315327863E+02 0.12873863647E+02 0.12873858354E+02 0.13315315787E+02
 0.14075041619E+02 0.14960816805E+02 0.14061223511E+02 0.14770034455E+02 0.15447096639E+02
 0.16070308045E+02 0.16584927975E+02 0.16854358603E+02 0.16691144242E+02 0.16024496547E+02
 0.14968089995E+02 0.13806444557E+02 0.12903279373E+02 0.12562737741E+02 0.12903241143E+02
 0.13806403514E+02 0.14968079157E+02 0.16024514644E+02 0.16691164459E+02 0.16854362964E+02
 0.16584924117E+02 0.16070311871E+02 0.15447108386E+02 0.14770039638E+02 0.14061213727E+02
 0.13335387022E+02 0.12619783654E+02 0.11986506392E+02 0.11542580607E+02 0.11382184590E+02
 0.11542572617E+02 0.11986501287E+02 0.12619791007E+02 0.13335402977E+02 0.12401139337E+02
 0.13209204426E+02 0.14032151688E+02 0.14814785356E+02 0.15450599976E+02 0.15739068544E+02
 0.15531074688E+02 0.14838070083E+02 0.13854318651E+02 0.12903279373E+02 0.12320981741E+02
 0.12320951821E+02 0.12903218485E+02 0.13854281281E+02 0.14838079487E+02 0.15531107547E+02
 0.15739090206E+02 0.15450600153E+02 0.14814776610E+02 0.14032146385E+02 0.13209203912E+02
 0.12401140509E+02 0.11637765424E+02 0.10943557694E+02 0.10353909141E+02 0.99167265184E+01
 0.96814792080E+01 0.96814824691E+01 0.99167328953E+01 0.10353912997E+02 0.10943557758E+02
 0.11637764052E+02 0.10952492365E+02 0.11869855861E+02 0.12819423756E+02 0.13721533869E+02
 0.14419387224E+02 0.14717970003E+02 0.14533339506E+02 0.13946601315E+02 0.13189159566E+02
 0.12562737741E+02 0.12320951821E+02 0.12562688903E+02 0.13189106301E+02 0.13946586196E+02
 0.14533365065E+02 0.14718006045E+02 0.14419404167E+02 0.13721523592E+02 0.12819398143E+02
 0.11869835975E+02 0.10952495320E+02 0.10114629279E+02 0.93824905206E+01 0.87755171784E+01
 0.83153845017E+01 0.80260468854E+01 0.79270796466E+01 0.80260727151E+01 0.83154091810E+01
 0.87755156048E+01 0.93824648002E+01 0.10114604132E+02 0.97706183586E+01 0.10790975128E+02
 0.11849150001E+02 0.12848615999E+02 0.13612692144E+02 0.13990040127E+02 0.13953110457E+02
 0.13615063704E+02 0.13189157384E+02 0.12903241143E+02 0.12903218485E+02 0.13189106301E+02
 0.13615020359E+02 0.13953100871E+02 0.13990062459E+02 0.13612723153E+02 0.12848632681E+02
 0.11849147288E+02 0.10790965346E+02 0.97706146274E+01 0.88472804160E+01 0.80534408322E+01
 0.74042650946E+01 0.69078064405E+01 0.65709751848E+01 0.64004034809E+01 0.64004002235E+01
 0.65709703555E+01 0.69078066272E+01 0.74042679148E+01 0.80534400431E+01 0.88472778971E+01
 0.88774197241E+01 0.99978170180E+01 0.11165368167E+02 0.12275920308E+02 0.13165490262E+02
 0.13725235947E+02 0.13953129447E+02 0.13946629970E+02 0.13854314934E+02 0.13806403514E+02
 0.13854281281E+02 0.13946586196E+02 0.13953100871E+02 0.13725231334E+02 0.13165503514E+02
 0.12275942574E+02 0.11165393326E+02 0.99978380675E+01 0.88774261319E+01 0.78665355749E+01
 0.70013942249E+01 0.62965835261E+01 0.57537266540E+01 0.53694808959E+01 0.51403047755E+01
 0.50641088269E+01 0.51402719537E+01 0.53694471362E+01 0.57537223668E+01 0.62966095833E+01
 0.70014268948E+01 0.78665517490E+01 0.82801356635E+01 0.95113946075E+01 0.10810175716E+02
 0.12075454256E+02 0.13165500082E+02 0.13990062462E+02 0.14533379015E+02 0.14838102611E+02
 0.14968090897E+02 0.14968079157E+02 0.14838079487E+02 0.14533365065E+02 0.13990062459E+02
 0.13165503514E+02 0.12075454696E+02 0.10810177799E+02 0.95114018102E+01 0.82801421541E+01
 0.71753876086E+01 0.62325066497E+01 0.54646504484E+01 0.48693087486E+01 0.44364227122E+01
 0.41549004489E+01 0.40163175728E+01 0.40163189944E+01 0.41549022676E+01 0.44364219385E+01
 0.48693076419E+01 0.54646534224E+01 0.62325121164E+01 0.71753883651E+01 0.79810950497E+01
 0.93473029717E+01 0.10810190205E+02 0.12275942409E+02 0.13612716024E+02 0.14717998537E+02
 0.15531102911E+02 0.16024512840E+02 0.16189485598E+02 0.16024514644E+02 0.15531107547E+02
 0.14718006045E+02 0.13612723153E+02 0.12275942574E+02 0.10810177799E+02 0.93472806703E+01
 0.79810767843E+01 0.67661044981E+01 0.57340039243E+01 0.48945481034E+01 0.42409092636E+01
 0.37573302780E+01 0.34263593676E+01 0.32337135787E+01 0.31704984573E+01 0.32337386384E+01
 0.34263913452E+01 0.37573451290E+01 0.42408952412E+01 0.48945159963E+01 0.57339782090E+01
 0.67661022744E+01 0.79810793307E+01 0.95113977507E+01 0.11165391186E+02 0.12848639117E+02
 0.14419411014E+02 0.15739084318E+02 0.16691148073E+02 0.17190096630E+02 0.17190105670E+02
 0.16691164459E+02 0.15739090206E+02 0.14419404167E+02 0.12848632681E+02 0.11165393326E+02
 0.95114018102E+01 0.79810767843E+01 0.66307181010E+01 0.54897822493E+01 0.45642659029E+01
 0.38425251639E+01 0.33030310378E+01 0.29221030164E+01 0.26795958141E+01 0.25617325027E+01
 0.25617315301E+01 0.26795955748E+01 0.29221058795E+01 0.33030327971E+01 0.38425210611E+01
 0.45642598363E+01 0.54897823453E+01 0.66307239493E+01 0.82801128569E+01 0.99978174844E+01
 0.11849150739E+02 0.13721540777E+02 0.15450608355E+02 0.16854353157E+02 0.17771952857E+02
 0.18091299588E+02 0.17771966954E+02 0.16854362964E+02 0.15450600153E+02 0.13721523592E+02
 0.11849147288E+02 0.99978380675E+01 0.82801421541E+01 0.67661044981E+01 0.54897822493E+01
 0.44563193770E+01 0.36501562126E+01 0.30440829145E+01 0.26079535364E+01 0.23153486232E+01
 0.21471329125E+01 0.20922416604E+01 0.21471198065E+01 0.23153268191E+01 0.26079345679E+01
 0.30440817516E+01 0.36501784463E+01 0.44563515137E+01 0.54897995133E+01 0.67660928576E+01
 0.88774236174E+01 0.10790969558E+02 0.12819405495E+02 0.14814778103E+02 0.16584914888E+02
 0.17918209397E+02 0.18635862767E+02 0.18635869501E+02 0.17918223423E+02 0.16584924117E+02
 0.14814776610E+02 0.12819398143E+02 0.10790965346E+02 0.88774261319E+01 0.71753876086E+01
 0.57340039243E+01 0.45642659029E+01 0.36501562126E+01 0.29601372656E+01 0.24577304002E+01
 0.21097108158E+01 0.18908285110E+01 0.17851191095E+01 0.17851192296E+01 0.18908279693E+01
 0.21097088834E+01 0.24577290731E+01 0.29601395827E+01 0.36501618608E+01 0.45642702849E+01