   2   2   0   0
  0.2001288E+02  0.3839590E-09  0.3839590E-09  0.3839590E-09  0.5000000E-15
  1.000000000000000E-004
  CAR 
 DFT Virtual Orbitals for Silicon        
     79.49594807    -10.57433346 2000      5.73724696      1.00000000
    -10.574  0.0000E+00  0.0000E+00
    -10.529  0.0000E+00  0.0000E+00
    -10.484  0.0000E+00  0.0000E+00
    -10.439  0.0000E+00  0.0000E+00
    -10.394  0.0000E+00  0.0000E+00
    -10.349  0.0000E+00  0.0000E+00
    -10.304  0.0000E+00  0.0000E+00
    -10.259  0.0000E+00  0.0000E+00
    -10.214  0.0000E+00  0.0000E+00
    -10.169  0.0000E+00  0.0000E+00
    -10.124  0.0000E+00  0.0000E+00
    -10.079  0.0000E+00  0.0000E+00
    -10.034  0.0000E+00  0.0000E+00
     -9.989  0.0000E+00  0.0000E+00
     -9.944  0.0000E+00  0.0000E+00
     -9.898  0.0000E+00  0.0000E+00
     -9.853  0.0000E+00  0.0000E+00
     -9.808  0.0000E+00  0.0000E+00
     -9.763  0.0000E+00  0.0000E+00
     -9.718  0.0000E+00  0.0000E+00
     -9.673  0.0000E+00  0.0000E+00
     -9.628  0.0000E+00  0.0000E+00
     -9.583  0.0000E+00  0.0000E+00
     -9.538  0.0000E+00  0.0000E+00
     -9.493  0.0000E+00  0.0000E+00
     -9.448  0.0000E+00  0.0000E+00
     -9.403  0.0000E+00  0.0000E+00
     -9.358  0.0000E+00  0.0000E+00
     -9.313  0.0000E+00  0.0000E+00
     -9.268  0.0000E+00  0.0000E+00
     -9.223  0.0000E+00  0.0000E+00
     -9.178  0.0000E+00  0.0000E+00
     -9.132  0.0000E+00  0.0000E+00
     -9.087  0.0000E+00  0.0000E+00
     -9.042  0.0000E+00  0.0000E+00
     -8.997  0.0000E+00  0.0000E+00
     -8.952  0.0000E+00  0.0000E+00
     -8.907  0.0000E+00  0.0000E+00
     -8.862  0.0000E+00  0.0000E+00
     -8.817  0.0000E+00  0.0000E+00
     -8.772  0.0000E+00  0.0000E+00
     -8.727  0.0000E+00  0.0000E+00
     -8.682  0.0000E+00  0.0000E+00
     -8.637  0.0000E+00  0.0000E+00
     -8.592  0.0000E+00  0.0000E+00
     -8.547  0.0000E+00  0.0000E+00
     -8.502  0.0000E+00  0.0000E+00
     -8.457  0.0000E+00  0.0000E+00
     -8.412  0.0000E+00  0.0000E+00
     -8.367  0.0000E+00  0.0000E+00
     -8.321  0.0000E+00  0.0000E+00
     -8.276  0.0000E+00  0.0000E+00
     -8.231  0.0000E+00  0.0000E+00
     -8.186  0.0000E+00  0.0000E+00
     -8.141  0.0000E+00  0.0000E+00
     -8.096  0.0000E+00  0.0000E+00
     -8.051  0.0000E+00  0.0000E+00
     -8.006  0.0000E+00  0.0000E+00
     -7.961  0.0000E+00  0.0000E+00
     -7.916  0.0000E+00  0.0000E+00
     -7.871  0.0000E+00  0.0000E+00
     -7.826  0.0000E+00  0.0000E+00
     -7.781  0.0000E+00  0.0000E+00
     -7.736  0.0000E+00  0.0000E+00
     -7.691  0.0000E+00  0.0000E+00
     -7.646  0.0000E+00  0.0000E+00
     -7.601  0.0000E+00  0.0000E+00
     -7.555  0.0000E+00  0.0000E+00
     -7.510  0.0000E+00  0.0000E+00
     -7.465  0.0000E+00  0.0000E+00
     -7.420  0.0000E+00  0.0000E+00
     -7.375  0.0000E+00  0.0000E+00
     -7.330  0.0000E+00  0.0000E+00
     -7.285  0.0000E+00  0.0000E+00
     -7.240  0.0000E+00  0.0000E+00
     -7.195  0.0000E+00  0.0000E+00
     -7.150  0.0000E+00  0.0000E+00
     -7.105  0.0000E+00  0.0000E+00
     -7.060  0.0000E+00  0.0000E+00
     -7.015  0.0000E+00  0.0000E+00
     -6.970  0.0000E+00  0.0000E+00
     -6.925  0.0000E+00  0.0000E+00
     -6.880  0.0000E+00  0.0000E+00
     -6.835  0.0000E+00  0.0000E+00
     -6.789  0.0000E+00  0.0000E+00
     -6.744  0.1394E-13  0.6279E-15
     -6.699  0.1013E-09  0.4565E-11
     -6.654  0.1505E-06  0.6787E-08
     -6.609  0.4650E-04  0.2102E-05
     -6.564  0.3069E-02  0.1404E-03
     -6.519  0.4501E-01  0.2168E-02
     -6.474  0.1539E+00  0.9104E-02
     -6.429  0.1269E+00  0.1482E-01
     -6.384  0.2505E-01  0.1595E-01
     -6.339  0.1139E-02  0.1600E-01
     -6.294  0.1136E-04  0.1600E-01
     -6.249  0.2402E-07  0.1600E-01
     -6.204  0.2391E-10  0.1600E-01
     -6.159  0.4287E-07  0.1600E-01
     -6.114  0.2824E-04  0.1600E-01
     -6.069  0.3915E-02  0.1618E-01
     -6.024  0.1182E+00  0.2150E-01
     -5.978  0.8126E+00  0.5811E-01
     -5.933  0.1330E+01  0.1180E+00
     -5.888  0.5296E+00  0.1419E+00
     -5.843  0.1500E+00  0.1487E+00
     -5.798  0.6471E+00  0.1778E+00
     -5.753  0.9851E+00  0.2222E+00
     -5.708  0.3627E+00  0.2386E+00
     -5.663  0.3136E-01  0.2400E+00
     -5.618  0.6073E-03  0.2400E+00
     -5.573  0.2526E-05  0.2400E+00
     -5.528  0.2192E-08  0.2400E+00
     -5.483  0.3898E-12  0.2400E+00
     -5.438  0.0000E+00  0.2400E+00
     -5.393  0.2874E-12  0.2400E+00
     -5.348  0.1910E-08  0.2400E+00
     -5.303  0.2597E-05  0.2400E+00
     -5.258  0.7352E-03  0.2400E+00
     -5.212  0.4454E-01  0.2420E+00
     -5.167  0.6012E+00  0.2691E+00
     -5.122  0.1897E+01  0.3546E+00
     -5.077  0.1444E+01  0.4197E+00
     -5.032  0.2629E+00  0.4315E+00
     -4.987  0.1099E-01  0.4320E+00
     -4.942  0.1006E-03  0.4320E+00
     -4.897  0.1947E-06  0.4320E+00
     -4.852  0.1472E-07  0.4320E+00
     -4.807  0.1522E-04  0.4320E+00
     -4.762  0.3308E-02  0.4321E+00
     -4.717  0.1557E+00  0.4392E+00
     -4.672  0.1679E+01  0.5148E+00
     -4.627  0.4587E+01  0.7215E+00
     -4.582  0.3736E+01  0.8898E+00
     -4.537  0.1089E+01  0.9389E+00
     -4.492  0.1102E+00  0.9439E+00
     -4.446  0.3060E-02  0.9440E+00
     -4.401  0.1959E-04  0.9440E+00
     -4.356  0.2675E-07  0.9440E+00
     -4.311  0.7545E-11  0.9440E+00
     -4.266  0.6308E-15  0.9440E+00
     -4.221  0.0000E+00  0.9440E+00
     -4.176  0.0000E+00  0.9440E+00
     -4.131  0.0000E+00  0.9440E+00
     -4.086  0.0000E+00  0.9440E+00
     -4.041  0.1561E-13  0.9440E+00
     -3.996  0.1804E-09  0.9440E+00
     -3.951  0.4355E-06  0.9440E+00
     -3.906  0.2223E-03  0.9440E+00
     -3.861  0.2451E-01  0.9451E+00
     -3.816  0.6033E+00  0.9723E+00
     -3.771  0.3459E+01  0.1128E+01
     -3.726  0.4804E+01  0.1345E+01
     -3.681  0.1628E+01  0.1418E+01
     -3.635  0.1306E+00  0.1424E+01
     -3.590  0.2359E-02  0.1424E+01
     -3.545  0.9208E-05  0.1424E+01
     -3.500  0.4461E-05  0.1424E+01
     -3.455  0.1308E-02  0.1424E+01
     -3.410  0.8219E-01  0.1428E+01
     -3.365  0.1149E+01  0.1480E+01
     -3.320  0.3753E+01  0.1649E+01
     -3.275  0.2955E+01  0.1782E+01
     -3.230  0.5569E+00  0.1807E+01
     -3.185  0.2412E-01  0.1808E+01
     -3.140  0.2291E-03  0.1808E+01
     -3.095  0.4604E-06  0.1808E+01
     -3.050  0.1912E-09  0.1808E+01
     -3.005  0.1609E-13  0.1808E+01
     -2.960  0.0000E+00  0.1808E+01
     -2.915  0.0000E+00  0.1808E+01
     -2.869  0.0000E+00  0.1808E+01
     -2.824  0.2233E-12  0.1808E+01
     -2.779  0.1547E-08  0.1808E+01
     -2.734  0.2192E-05  0.1808E+01
     -2.689  0.6465E-03  0.1808E+01
     -2.644  0.4076E-01  0.1810E+01
     -2.599  0.5721E+00  0.1836E+01
     -2.554  0.1874E+01  0.1920E+01
     -2.509  0.1481E+01  0.1987E+01
     -2.464  0.2801E+00  0.1999E+01
     -2.419  0.1217E-01  0.2000E+01
     -2.374  0.1161E-03  0.2000E+01
     -2.329  0.2341E-06  0.2000E+01
     -2.284  0.9762E-10  0.2000E+01
     -2.239  0.1183E-13  0.2000E+01
     -2.194  0.4556E-10  0.2000E+01
     -2.149  0.1257E-06  0.2000E+01
     -2.103  0.7152E-04  0.2000E+01
     -2.058  0.8592E-02  0.2000E+01
     -2.013  0.2255E+00  0.2011E+01
     -1.968  0.1355E+01  0.2072E+01
     -1.923  0.1944E+01  0.2159E+01
     -1.878  0.6730E+00  0.2189E+01
     -1.833  0.5461E-01  0.2192E+01
     -1.788  0.9906E-03  0.2192E+01
     -1.743  0.3853E-05  0.2192E+01
     -1.698  0.3124E-08  0.2192E+01
     -1.653  0.5190E-12  0.2192E+01
     -1.608  0.0000E+00  0.2192E+01
     -1.563  0.0000E+00  0.2192E+01
     -1.518  0.0000E+00  0.2192E+01
     -1.473  0.4453E-11  0.2192E+01
     -1.428  0.2094E-07  0.2192E+01
     -1.383  0.2021E-04  0.2192E+01
     -1.338  0.4083E-02  0.2192E+01
     -1.292  0.1778E+00  0.2200E+01
     -1.247  0.1744E+01  0.2279E+01
     -1.202  0.4035E+01  0.2461E+01
     -1.157  0.2363E+01  0.2567E+01
     -1.112  0.1638E+01  0.2641E+01
     -1.067  0.3892E+01  0.2816E+01
     -1.022  0.2718E+01  0.2939E+01
     -0.977  0.4544E+00  0.2959E+01
     -0.932  0.1748E-01  0.2960E+01
     -0.887  0.9815E-02  0.2960E+01
     -0.842  0.2079E+00  0.2970E+01
     -0.797  0.1033E+01  0.3016E+01
     -0.752  0.1329E+01  0.3076E+01
     -0.707  0.1013E+01  0.3122E+01
     -0.662  0.1001E+01  0.3167E+01
     -0.617  0.3485E+00  0.3183E+01
     -0.572  0.2908E-01  0.3184E+01
     -0.526  0.5431E-03  0.3184E+01
     -0.481  0.2177E-05  0.3184E+01
     -0.436  0.1820E-08  0.3184E+01
     -0.391  0.3118E-12  0.3184E+01
     -0.346  0.0000E+00  0.3184E+01
     -0.301  0.0000E+00  0.3184E+01
     -0.256  0.0000E+00  0.3184E+01
     -0.211  0.0000E+00  0.3184E+01
     -0.166  0.0000E+00  0.3184E+01
     -0.121  0.4731E-15  0.3184E+01
     -0.076  0.5984E-11  0.3184E+01
     -0.031  0.2674E-07  0.3184E+01
      0.014  0.2455E-04  0.3184E+01
      0.059  0.4717E-02  0.3184E+01
      0.104  0.1957E+00  0.3193E+01
      0.149  0.1831E+01  0.3276E+01
      0.194  0.4047E+01  0.3458E+01
      0.240  0.2162E+01  0.3555E+01
      0.285  0.2740E+00  0.3568E+01
      0.330  0.7875E-02  0.3568E+01
      0.375  0.4909E-04  0.3568E+01
      0.420  0.6426E-07  0.3568E+01
      0.465  0.1730E-10  0.3568E+01
      0.510  0.9462E-15  0.3568E+01
      0.555  0.0000E+00  0.3568E+01
      0.600  0.0000E+00  0.3568E+01
      0.645  0.0000E+00  0.3568E+01
      0.690  0.0000E+00  0.3568E+01
      0.735  0.2365E-13  0.3568E+01
      0.780  0.2361E-09  0.3568E+01
      0.825  0.4802E-06  0.3568E+01
      0.870  0.2023E-03  0.3568E+01
      0.915  0.1809E-01  0.3569E+01
      0.960  0.3563E+00  0.3585E+01
      1.005  0.1621E+01  0.3658E+01
      1.051  0.1771E+01  0.3738E+01
      1.096  0.4656E+00  0.3759E+01
      1.141  0.2844E-01  0.3760E+01
      1.186  0.3848E-03  0.3760E+01
      1.231  0.1513E-05  0.3760E+01
      1.276  0.1770E-03  0.3760E+01
      1.321  0.1645E-01  0.3761E+01
      1.366  0.3371E+00  0.3776E+01
      1.411  0.1637E+01  0.3850E+01
      1.456  0.2650E+01  0.3969E+01
      1.501  0.3935E+01  0.4146E+01
      1.546  0.3381E+01  0.4299E+01
      1.591  0.7832E+00  0.4334E+01
      1.636  0.4234E-01  0.4336E+01
      1.681  0.5054E-03  0.4336E+01
      1.726  0.1282E-05  0.4336E+01
      1.771  0.6742E-09  0.4336E+01
      1.817  0.2227E-09  0.4336E+01
      1.862  0.5212E-06  0.4336E+01
      1.907  0.2522E-03  0.4336E+01
      1.952  0.2584E-01  0.4337E+01
      1.997  0.5810E+00  0.4363E+01
      2.042  0.3004E+01  0.4499E+01
      2.087  0.3721E+01  0.4666E+01
      2.132  0.1111E+01  0.4716E+01
      2.177  0.7739E-01  0.4720E+01
      2.222  0.1199E-02  0.4720E+01
      2.267  0.3979E-05  0.4720E+01
      2.312  0.1172E-04  0.4720E+01
      2.357  0.2982E-02  0.4720E+01
      2.402  0.1682E+00  0.4728E+01
      2.447  0.2188E+01  0.4826E+01
      2.492  0.6863E+01  0.5136E+01
      2.537  0.5337E+01  0.5376E+01
      2.583  0.1019E+01  0.5422E+01
      2.628  0.4585E-01  0.5424E+01
      2.673  0.2963E-02  0.5424E+01
      2.718  0.1020E+00  0.5429E+01
      2.763  0.9668E+00  0.5472E+01
      2.808  0.2772E+01  0.5597E+01
      2.853  0.5098E+01  0.5827E+01
      2.898  0.6229E+01  0.6108E+01
      2.943  0.3274E+01  0.6255E+01
      2.988  0.6860E+00  0.6286E+01
      3.033  0.4451E-01  0.6288E+01
      3.078  0.7038E-03  0.6288E+01
      3.123  0.2432E-05  0.6288E+01
      3.168  0.1758E-08  0.6288E+01
      3.213  0.2995E-12  0.6288E+01
      3.258  0.4034E-09  0.6288E+01
      3.303  0.8453E-06  0.6288E+01
      3.348  0.3667E-03  0.6288E+01
      3.394  0.3374E-01  0.6290E+01
      3.439  0.6833E+00  0.6320E+01
      3.484  0.3194E+01  0.6464E+01
      3.529  0.3582E+01  0.6626E+01
      3.574  0.9673E+00  0.6669E+01
      3.619  0.6083E-01  0.6672E+01
      3.664  0.1213E-01  0.6673E+01
      3.709  0.3456E+00  0.6688E+01
      3.754  0.2410E+01  0.6797E+01
      3.799  0.3998E+01  0.6977E+01
      3.844  0.1603E+01  0.7049E+01
      3.889  0.1565E+00  0.7056E+01
      3.934  0.1669E+00  0.7064E+01
      3.979  0.1175E+01  0.7117E+01
      4.024  0.2007E+01  0.7207E+01
      4.069  0.8280E+00  0.7244E+01
      4.114  0.8048E-01  0.7248E+01
      4.160  0.1759E-02  0.7248E+01
      4.205  0.4535E-04  0.7248E+01
      4.250  0.5754E-02  0.7248E+01
      4.295  0.1938E+00  0.7257E+01
      4.340  0.1483E+01  0.7324E+01
      4.385  0.2692E+01  0.7445E+01
      4.430  0.1182E+01  0.7498E+01
      4.475  0.1224E+00  0.7504E+01
      4.520  0.4121E-02  0.7504E+01
      4.565  0.6447E-01  0.7507E+01
      4.610  0.7362E+00  0.7540E+01
      4.655  0.1975E+01  0.7629E+01
      4.700  0.1280E+01  0.7687E+01
      4.745  0.1977E+00  0.7696E+01
      4.790  0.9359E-02  0.7696E+01
      4.835  0.1087E+00  0.7701E+01
      4.880  0.1111E+01  0.7751E+01
      4.926  0.2678E+01  0.7872E+01
      4.971  0.1559E+01  0.7942E+01
      5.016  0.2158E+00  0.7952E+01
      5.061  0.6796E-02  0.7952E+01
      5.106  0.4652E-04  0.7952E+01
      5.151  0.6697E-07  0.7952E+01
      5.196  0.1986E-10  0.7952E+01
      5.241  0.8707E-12  0.7952E+01
      5.286  0.3786E-08  0.7952E+01
      5.331  0.3386E-05  0.7952E+01
      5.376  0.6345E-03  0.7952E+01
      5.421  0.2568E-01  0.7953E+01
      5.466  0.2346E+00  0.7964E+01
      5.511  0.5065E+00  0.7987E+01
      5.556  0.2643E+00  0.7998E+01
      5.601  0.3271E-01  0.8000E+01
      5.646  0.9172E-03  0.8000E+01
      5.691  0.5574E-05  0.8000E+01
      5.737  0.7110E-08  0.8000E+01
      5.782  0.1866E-11  0.8000E+01
      5.827  0.9202E-11  0.8000E+01
      5.872  0.2989E-07  0.8000E+01
      5.917  0.2000E-04  0.8000E+01
      5.962  0.2816E-02  0.8000E+01
      6.007  0.8629E-01  0.8004E+01
      6.052  0.6021E+00  0.8031E+01
      6.097  0.9997E+00  0.8076E+01
      6.142  0.4011E+00  0.8094E+01
      6.187  0.3788E-01  0.8096E+01
      6.232  0.8034E-03  0.8096E+01
      6.277  0.3668E-05  0.8096E+01
      6.322  0.7736E-07  0.8096E+01
      6.367  0.4721E-04  0.8096E+01
      6.412  0.6356E-02  0.8096E+01
      6.457  0.1864E+00  0.8105E+01
      6.503  0.1247E+01  0.8161E+01
      6.548  0.1986E+01  0.8250E+01
      6.593  0.7645E+00  0.8285E+01
      6.638  0.6918E-01  0.8288E+01
      6.683  0.2320E-02  0.8288E+01
      6.728  0.4137E-01  0.8290E+01
      6.773  0.4200E+00  0.8309E+01
      6.818  0.1005E+01  0.8354E+01
      6.863  0.5986E+00  0.8381E+01
      6.908  0.3425E+00  0.8397E+01
      6.953  0.9192E+00  0.8438E+01
      6.998  0.7731E+00  0.8473E+01
      7.043  0.2393E+00  0.8484E+01
      7.088  0.6989E+00  0.8515E+01
      7.133  0.1353E+01  0.8576E+01
      7.178  0.7032E+00  0.8608E+01
      7.223  0.1076E+01  0.8656E+01
      7.269  0.3624E+01  0.8819E+01
      7.314  0.3144E+01  0.8961E+01
      7.359  0.6543E+00  0.8991E+01
      7.404  0.3161E-01  0.8992E+01
      7.449  0.2251E-01  0.8993E+01
      7.494  0.5288E+00  0.9017E+01
      7.539  0.2894E+01  0.9147E+01
      7.584  0.3791E+01  0.9318E+01
      7.629  0.1230E+01  0.9373E+01
      7.674  0.5097E+00  0.9396E+01
      7.719  0.1280E+01  0.9454E+01
      7.764  0.9368E+00  0.9496E+01
      7.809  0.1640E+00  0.9504E+01
      7.854  0.6582E-02  0.9504E+01
      7.899  0.6790E-04  0.9504E+01
      7.944  0.1417E-02  0.9504E+01
      7.989  0.4332E-01  0.9506E+01
      8.034  0.3016E+00  0.9520E+01
      8.080  0.4997E+00  0.9542E+01
      8.125  0.2000E+00  0.9551E+01
      8.170  0.1885E-01  0.9552E+01
      8.215  0.4024E-03  0.9552E+01
      8.260  0.9427E-03  0.9552E+01
      8.305  0.5273E-01  0.9554E+01
      8.350  0.6601E+00  0.9584E+01
      8.395  0.1936E+01  0.9671E+01
      8.440  0.1371E+01  0.9733E+01
      8.485  0.2317E+00  0.9744E+01
      8.530  0.1117E-01  0.9744E+01
      8.575  0.9342E-01  0.9748E+01
      8.620  0.8938E+00  0.9789E+01
      8.665  0.2021E+01  0.9880E+01
      8.710  0.1104E+01  0.9929E+01
      8.755  0.1590E+00  0.9937E+01
      8.800  0.4256E+00  0.9956E+01
      8.846  0.3094E+01  0.1010E+02
      8.891  0.7665E+01  0.1044E+02
      8.936  0.6888E+01  0.1075E+02
      8.981  0.1994E+01  0.1084E+02
      9.026  0.1599E+00  0.1085E+02
      9.071  0.3176E-02  0.1085E+02
      9.116  0.7913E-04  0.1085E+02
      9.161  0.9643E-02  0.1085E+02
      9.206  0.3124E+00  0.1086E+02
      9.251  0.2300E+01  0.1097E+02
      9.296  0.4040E+01  0.1115E+02
      9.341  0.1940E+01  0.1124E+02
      9.386  0.1073E+01  0.1128E+02
      9.431  0.1089E+01  0.1133E+02
      9.476  0.1668E+01  0.1141E+02
      9.521  0.2205E+01  0.1151E+02
      9.566  0.2910E+01  0.1164E+02
      9.612  0.4056E+01  0.1182E+02
      9.657  0.1666E+01  0.1190E+02
      9.702  0.1656E+00  0.1190E+02
      9.747  0.1157E+00  0.1191E+02
      9.792  0.9811E+00  0.1195E+02
      9.837  0.2074E+01  0.1205E+02
      9.882  0.1836E+01  0.1213E+02
      9.927  0.3525E+01  0.1229E+02
      9.972  0.3395E+01  0.1244E+02
     10.017  0.8632E+00  0.1248E+02
     10.062  0.9210E+00  0.1252E+02
     10.107  0.3476E+01  0.1268E+02
     10.152  0.3318E+01  0.1283E+02
     10.197  0.7771E+00  0.1286E+02
     10.242  0.4808E+00  0.1288E+02
     10.287  0.2690E+01  0.1301E+02
     10.332  0.4115E+01  0.1319E+02
     10.377  0.3111E+01  0.1333E+02
     10.423  0.4824E+01  0.1355E+02
     10.468  0.4612E+01  0.1376E+02
     10.513  0.1388E+01  0.1382E+02
     10.558  0.1072E+00  0.1382E+02
     10.603  0.1900E-02  0.1382E+02
     10.648  0.7269E-05  0.1382E+02
     10.693  0.5822E-08  0.1382E+02
     10.738  0.6432E-07  0.1382E+02
     10.783  0.4913E-04  0.1382E+02
     10.828  0.7880E-02  0.1382E+02
     10.873  0.2741E+00  0.1384E+02
     10.918  0.2162E+01  0.1393E+02
     10.963  0.4047E+01  0.1412E+02
     11.008  0.1831E+01  0.1420E+02
     11.053  0.1956E+00  0.1421E+02
     11.098  0.4925E-02  0.1421E+02
     11.143  0.1868E-01  0.1421E+02
     11.189  0.3629E+00  0.1423E+02
     11.234  0.1632E+01  0.1430E+02
     11.279  0.1762E+01  0.1438E+02
     11.324  0.4577E+00  0.1440E+02
     11.369  0.2762E-01  0.1440E+02
     11.414  0.6639E-03  0.1440E+02
     11.459  0.2089E-01  0.1440E+02
     11.504  0.3288E+00  0.1442E+02
     11.549  0.1236E+01  0.1447E+02
     11.594  0.1588E+01  0.1454E+02
     11.639  0.2062E+01  0.1464E+02
     11.684  0.1545E+01  0.1471E+02
     11.729  0.3068E+00  0.1472E+02
     11.774  0.1412E-01  0.1472E+02
     11.819  0.1428E-03  0.1472E+02
     11.864  0.3059E-06  0.1472E+02
     11.909  0.1356E-09  0.1472E+02
     11.955  0.1230E-13  0.1472E+02
     12.000  0.0000E+00  0.1472E+02
     12.045  0.0000E+00  0.1472E+02
     12.090  0.0000E+00  0.1472E+02
     12.135  0.0000E+00  0.1472E+02
     12.180  0.0000E+00  0.1472E+02
     12.225  0.0000E+00  0.1472E+02
     12.270  0.0000E+00  0.1472E+02
     12.315  0.2460E-12  0.1472E+02
     12.360  0.1766E-08  0.1472E+02
     12.405  0.2605E-05  0.1472E+02
     12.450  0.8059E-03  0.1472E+02
     12.495  0.5410E-01  0.1472E+02
     12.540  0.8301E+00  0.1476E+02
     12.585  0.3107E+01  0.1490E+02
     12.630  0.3002E+01  0.1504E+02
     12.675  0.7662E+00  0.1507E+02
     12.720  0.5083E-01  0.1507E+02
     12.766  0.8354E-03  0.1507E+02
     12.811  0.3197E-05  0.1507E+02
     12.856  0.3974E-08  0.1507E+02
     12.901  0.2159E-05  0.1507E+02
     12.946  0.7536E-03  0.1507E+02
     12.991  0.5604E-01  0.1507E+02
     13.036  0.9232E+00  0.1512E+02
     13.081  0.3533E+01  0.1528E+02
     13.126  0.3253E+01  0.1542E+02
     13.171  0.7241E+00  0.1545E+02
     13.216  0.1909E+00  0.1546E+02
     13.261  0.1553E+01  0.1553E+02
     13.306  0.4743E+01  0.1575E+02
     13.351  0.4318E+01  0.1594E+02
     13.396  0.1232E+01  0.1600E+02
     13.441  0.2400E+00  0.1601E+02
     13.486  0.1492E+00  0.1601E+02
     13.532  0.1624E+00  0.1602E+02
     13.577  0.1044E+01  0.1607E+02
     13.622  0.2027E+01  0.1616E+02
     13.667  0.9529E+00  0.1620E+02
     13.712  0.1059E+00  0.1621E+02
     13.757  0.3739E-02  0.1621E+02
     13.802  0.7206E-01  0.1621E+02
     13.847  0.1071E+01  0.1626E+02
     13.892  0.3899E+01  0.1644E+02
     13.937  0.5714E+01  0.1669E+02
     13.982  0.8779E+01  0.1709E+02
     14.027  0.7925E+01  0.1745E+02
     14.072  0.3659E+01  0.1761E+02
     14.117  0.8564E+00  0.1765E+02
     14.162  0.9314E+00  0.1769E+02
     14.207  0.3108E+01  0.1783E+02
     14.252  0.3303E+01  0.1798E+02
     14.298  0.1065E+01  0.1803E+02
     14.343  0.9456E-01  0.1803E+02
     14.388  0.2658E-02  0.1803E+02
     14.433  0.4290E-01  0.1803E+02
     14.478  0.6672E+00  0.1806E+02
     14.523  0.2449E+01  0.1817E+02
     14.568  0.2703E+01  0.1830E+02
     14.613  0.2881E+01  0.1843E+02
     14.658  0.2890E+01  0.1856E+02
     14.703  0.1038E+01  0.1860E+02
     14.748  0.1095E+00  0.1861E+02
     14.793  0.2963E-02  0.1861E+02
     14.838  0.1838E-04  0.1861E+02
     14.883  0.2446E-07  0.1861E+02
     14.928  0.6748E-11  0.1861E+02
     14.973  0.3154E-15  0.1861E+02
     15.018  0.0000E+00  0.1861E+02
     15.063  0.0000E+00  0.1861E+02
     15.109  0.0000E+00  0.1861E+02
     15.154  0.0000E+00  0.1861E+02
     15.199  0.0000E+00  0.1861E+02
     15.244  0.0000E+00  0.1861E+02
     15.289  0.0000E+00  0.1861E+02
     15.334  0.1284E-12  0.1861E+02
     15.379  0.9115E-09  0.1861E+02
     15.424  0.1324E-05  0.1861E+02
     15.469  0.3999E-03  0.1861E+02
     15.514  0.2589E-01  0.1861E+02
     15.559  0.3824E+00  0.1863E+02
     15.604  0.1601E+01  0.1870E+02
     15.649  0.3557E+01  0.1886E+02
     15.694  0.5487E+01  0.1911E+02
     15.739  0.5438E+01  0.1935E+02
     15.784  0.2905E+01  0.1948E+02
     15.829  0.5649E+00  0.1951E+02
     15.875  0.7581E+00  0.1954E+02
     15.920  0.2464E+01  0.1965E+02
     15.965  0.4340E+01  0.1985E+02
     16.010  0.2602E+01  0.1997E+02
     16.055  0.3982E+00  0.1998E+02
     16.100  0.1493E-01  0.1998E+02
     16.145  0.5130E-01  0.1999E+02
     16.190  0.7298E+00  0.2002E+02
     16.235  0.3167E+01  0.2016E+02
     16.280  0.5719E+01  0.2042E+02
     16.325  0.5285E+01  0.2066E+02
     16.370  0.3133E+01  0.2080E+02
     16.415  0.1339E+01  0.2086E+02
     16.460  0.1330E+01  0.2092E+02
     16.505  0.1040E+01  0.2097E+02
     16.550  0.2118E+00  0.2098E+02
     16.595  0.1002E-01  0.2098E+02
     16.640  0.5342E-02  0.2098E+02
     16.686  0.1436E+00  0.2098E+02
     16.731  0.9255E+00  0.2102E+02
     16.776  0.1473E+01  0.2109E+02
     16.821  0.5894E+00  0.2112E+02
     16.866  0.5819E-01  0.2112E+02
     16.911  0.1358E-02  0.2112E+02
     16.956  0.3297E-04  0.2112E+02
     17.001  0.4894E-02  0.2112E+02
     17.046  0.2005E+00  0.2113E+02
     17.091  0.1854E+01  0.2121E+02
     17.136  0.4050E+01  0.2140E+02
     17.181  0.2138E+01  0.2149E+02
     17.226  0.2677E+00  0.2150E+02
     17.271  0.7609E-02  0.2150E+02
     17.316  0.1757E-02  0.2150E+02
     17.361  0.7899E-01  0.2151E+02
     17.406  0.8199E+00  0.2154E+02
     17.452  0.2005E+01  0.2163E+02
     17.497  0.1184E+01  0.2169E+02
     17.542  0.1664E+00  0.2170E+02
     17.587  0.5321E-02  0.2170E+02
     17.632  0.3701E-04  0.2170E+02
     17.677  0.5414E-07  0.2170E+02
     17.722  0.1994E-09  0.2170E+02
     17.767  0.3906E-06  0.2170E+02
     17.812  0.1725E-03  0.2170E+02
     17.857  0.1615E-01  0.2170E+02
     17.902  0.3328E+00  0.2171E+02
     17.947  0.1582E+01  0.2178E+02
     17.992  0.1803E+01  0.2186E+02
     18.037  0.4954E+00  0.2189E+02
     18.082  0.6003E-01  0.2189E+02
     18.127  0.4658E+00  0.2191E+02
     18.172  0.1771E+01  0.2199E+02
     18.218  0.1622E+01  0.2206E+02
     18.263  0.3647E+00  0.2208E+02
     18.308  0.2999E+00  0.2209E+02
     18.353  0.2191E+01  0.2219E+02
     18.398  0.4043E+01  0.2237E+02
     18.443  0.1804E+01  0.2246E+02
     18.488  0.1949E+00  0.2246E+02
     18.533  0.1268E+00  0.2247E+02
     18.578  0.7009E+00  0.2250E+02
     18.623  0.9605E+00  0.2254E+02
     18.668  0.3478E+00  0.2256E+02
     18.713  0.5697E+00  0.2259E+02
     18.758  0.2290E+01  0.2269E+02
     18.803  0.2820E+01  0.2282E+02
     18.848  0.3494E+01  0.2297E+02
     18.893  0.3796E+01  0.2314E+02
     18.938  0.1459E+01  0.2321E+02
     18.983  0.2357E+01  0.2332E+02
     19.029  0.4031E+01  0.2350E+02
     19.074  0.1726E+01  0.2358E+02
     19.119  0.1744E+00  0.2358E+02
     19.164  0.5456E-02  0.2358E+02
     19.209  0.8258E-01  0.2359E+02
     19.254  0.1060E+01  0.2364E+02
     19.299  0.3527E+01  0.2379E+02
     19.344  0.4051E+01  0.2398E+02
     19.389  0.2558E+01  0.2409E+02
     19.434  0.7660E+00  0.2413E+02
     19.479  0.4819E+00  0.2415E+02
     19.524  0.1288E+01  0.2421E+02
     19.569  0.1175E+01  0.2426E+02
     19.614  0.2191E+01  0.2436E+02
     19.659  0.4063E+01  0.2454E+02
     19.704  0.1961E+01  0.2463E+02
     19.749  0.2339E+00  0.2464E+02
     19.795  0.2465E+00  0.2465E+02
     19.840  0.1395E+01  0.2471E+02
     19.885  0.2064E+01  0.2481E+02
     19.930  0.2463E+01  0.2492E+02
     19.975  0.5855E+01  0.2518E+02
     20.020  0.5921E+01  0.2545E+02
     20.065  0.4823E+01  0.2567E+02
     20.110  0.2946E+01  0.2580E+02
     20.155  0.3370E+01  0.2595E+02
     20.200  0.4776E+01  0.2617E+02
     20.245  0.2211E+01  0.2627E+02
     20.290  0.1310E+01  0.2632E+02
     20.335  0.2040E+01  0.2642E+02
     20.380  0.1080E+01  0.2647E+02
     20.425  0.1152E+01  0.2652E+02
     20.470  0.2029E+01  0.2661E+02
     20.515  0.9486E+00  0.2665E+02
     20.561  0.1053E+00  0.2666E+02
     20.606  0.3589E-01  0.2666E+02
     20.651  0.8756E+00  0.2670E+02
     20.696  0.5323E+01  0.2694E+02
     20.741  0.7794E+01  0.2729E+02
     20.786  0.2780E+01  0.2741E+02
     20.831  0.2488E+00  0.2742E+02
     20.876  0.1037E+00  0.2743E+02
     20.921  0.1669E+00  0.2744E+02
     20.966  0.6781E-01  0.2744E+02
     21.011  0.6488E-02  0.2744E+02
     21.056  0.3790E-03  0.2744E+02
     21.101  0.2490E-01  0.2744E+02
     21.146  0.5680E+00  0.2747E+02
     21.191  0.2978E+01  0.2760E+02
     21.236  0.3740E+01  0.2777E+02
     21.281  0.1190E+01  0.2782E+02
     21.326  0.7768E+00  0.2786E+02
     21.372  0.1958E+01  0.2795E+02
     21.417  0.1326E+01  0.2801E+02
     21.462  0.2145E+00  0.2802E+02
     21.507  0.7933E-02  0.2802E+02
     21.552  0.6406E-04  0.2802E+02
     21.597  0.1091E-06  0.2802E+02
     21.642  0.4204E-09  0.2802E+02
     21.687  0.7095E-06  0.2802E+02
     21.732  0.2732E-03  0.2802E+02
     21.777  0.2237E-01  0.2802E+02
     21.822  0.4054E+00  0.2804E+02
     21.867  0.1763E+01  0.2811E+02
     21.912  0.2753E+01  0.2824E+02
     21.957  0.4079E+01  0.2842E+02
     22.002  0.3239E+01  0.2857E+02
     22.047  0.2257E+01  0.2867E+02
     22.092  0.4857E+01  0.2889E+02
     22.138  0.3448E+01  0.2904E+02
     22.183  0.5885E+00  0.2907E+02
     22.228  0.2303E-01  0.2907E+02
     22.273  0.7122E-03  0.2907E+02
     22.318  0.3483E-01  0.2907E+02
     22.363  0.5232E+00  0.2910E+02
     22.408  0.1831E+01  0.2918E+02
     22.453  0.1547E+01  0.2925E+02
     22.498  0.4191E+00  0.2927E+02
     22.543  0.1022E+01  0.2931E+02
     22.588  0.2811E+01  0.2944E+02
     22.633  0.2483E+01  0.2955E+02
     22.678  0.7173E+00  0.2959E+02
     22.723  0.1095E+01  0.2963E+02
     22.768  0.3901E+01  0.2981E+02
     22.813  0.4493E+01  0.3001E+02
     22.858  0.2550E+01  0.3013E+02
     22.904  0.6674E+00  0.3016E+02
     22.949  0.4987E-01  0.3016E+02
     22.994  0.8602E-03  0.3016E+02
     23.039  0.3193E-05  0.3016E+02
     23.084  0.2471E-08  0.3016E+02
     23.129  0.3916E-12  0.3016E+02
     23.174  0.2810E-11  0.3016E+02
     23.219  0.1183E-07  0.3016E+02
     23.264  0.1024E-04  0.3016E+02
     23.309  0.1857E-02  0.3016E+02
     23.354  0.7285E-01  0.3016E+02
     23.399  0.6495E+00  0.3019E+02
     23.444  0.1538E+01  0.3026E+02
     23.489  0.2468E+01  0.3037E+02
     23.534  0.4122E+01  0.3056E+02
     23.579  0.2215E+01  0.3066E+02
     23.624  0.2878E+00  0.3067E+02
     23.669  0.8493E-02  0.3067E+02
     23.715  0.5440E-04  0.3067E+02
     23.760  0.1403E-06  0.3067E+02
     23.805  0.4378E-04  0.3067E+02
     23.850  0.6016E-02  0.3067E+02
     23.895  0.1800E+00  0.3068E+02
     23.940  0.1227E+01  0.3074E+02
     23.985  0.1993E+01  0.3083E+02
     24.030  0.7815E+00  0.3086E+02
     24.075  0.7371E-01  0.3086E+02
     24.120  0.7703E-01  0.3087E+02
     24.165  0.8043E+00  0.3090E+02
     24.210  0.2159E+01  0.3100E+02
     24.255  0.2856E+01  0.3113E+02
     24.300  0.4185E+01  0.3132E+02
     24.345  0.2371E+01  0.3143E+02
     24.390  0.4911E+00  0.3145E+02
     24.435  0.7929E+00  0.3148E+02
     24.481  0.9082E+00  0.3152E+02
     24.526  0.2542E+00  0.3154E+02
     24.571  0.4305E-01  0.3154E+02
     24.616  0.5115E+00  0.3156E+02
     24.661  0.2464E+01  0.3167E+02
     24.706  0.4018E+01  0.3185E+02
     24.751  0.3227E+01  0.3200E+02
     24.796  0.1027E+01  0.3204E+02
     24.841  0.8813E-01  0.3205E+02
     24.886  0.4542E-02  0.3205E+02
     24.931  0.8978E-01  0.3205E+02
     24.976  0.7785E+00  0.3209E+02
     25.021  0.2747E+01  0.3221E+02
     25.066  0.4437E+01  0.3241E+02
     25.111  0.2291E+01  0.3251E+02
     25.156  0.3498E+00  0.3253E+02
     25.201  0.8766E+00  0.3257E+02
     25.247  0.3467E+01  0.3273E+02
     25.292  0.3387E+01  0.3288E+02
     25.337  0.1270E+01  0.3294E+02
     25.382  0.1141E+01  0.3299E+02
     25.427  0.1956E+01  0.3307E+02
     25.472  0.8095E+01  0.3344E+02
     25.517  0.1467E+02  0.3410E+02
     25.562  0.8401E+01  0.3448E+02
     25.607  0.1798E+01  0.3456E+02
     25.652  0.1350E+01  0.3462E+02
     25.697  0.1573E+01  0.3469E+02
     25.742  0.3224E+01  0.3484E+02
     25.787  0.3838E+01  0.3501E+02
     25.832  0.2608E+01  0.3513E+02
     25.877  0.4436E+01  0.3533E+02
     25.922  0.4210E+01  0.3552E+02
     25.967  0.2094E+01  0.3561E+02
     26.012  0.4308E+00  0.3563E+02
     26.058  0.2372E-01  0.3563E+02
     26.103  0.3065E-03  0.3563E+02
     26.148  0.2624E-02  0.3563E+02
     26.193  0.1321E+00  0.3564E+02
     26.238  0.1492E+01  0.3571E+02
     26.283  0.3958E+01  0.3588E+02
     26.328  0.2553E+01  0.3600E+02
     26.373  0.7284E+00  0.3603E+02
     26.418  0.1641E+01  0.3611E+02
     26.463  0.2301E+01  0.3621E+02
     26.508  0.2458E+01  0.3632E+02
     26.553  0.2770E+01  0.3644E+02
     26.598  0.2335E+01  0.3655E+02