    2    2    1    1
  0.2001288E+02  0.3839590E-09  0.3839590E-09  0.3839590E-09  0.5000000E-15
  1.000000000000000E-004
  CAR 
 DFT Virtual Orbitals for Silicon        
      8     10     64
 
  0.0000000E+00  0.0000000E+00  0.0000000E+00  0.8000000E-02
      1         -6.480230   1.000000
      2          5.490609   1.000000
      3          5.490617   1.000000
      4          5.490617   1.000000
      5          8.050509   0.000000
      6          8.050519   0.000000
      7          8.050519   0.000000
      8          8.852152   0.000000
      9         13.262644   0.000000
     10         13.262644   0.000000
     11         13.442238   0.000000
     12         16.754842   0.000000
     13         16.754849   0.000000
     14         16.754849   0.000000
     15         20.892420   0.000000
     16         28.823287   0.000000
     17         28.823325   0.000000
     18         28.823325   0.000000
     19         29.996916   0.000000
     20         29.996916   0.000000
     21         31.389672   0.000000
     22         31.389719   0.000000
     23         31.389719   0.000000
     24         34.759222   0.000000
     25         34.759222   0.000000
     26         34.759280   0.000000
     27         40.804683   0.000000
     28         40.804881   0.000000
     29         40.804881   0.000000
     30         43.887252   0.000000
     31         44.660848   0.000000
     32         44.660848   0.000000
     33         46.330975   0.000000
     34         46.330975   0.000000
     35         47.869100   0.000000
     36         47.869123   0.000000
     37         47.869123   0.000000
     38         49.541139   0.000000
     39         49.541165   0.000000
     40         49.541165   0.000000
     41         50.162036   0.000000
     42         50.555953   0.000000
     43         50.555953   0.000000
     44         50.556010   0.000000
     45         50.595296   0.000000
     46         50.595317   0.000000
     47         50.595317   0.000000
     48         51.942547   0.000000
     49         51.942547   0.000000
     50         51.942573   0.000000
     51         55.976617   0.000000
     52         57.174791   0.000000
     53         57.174825   0.000000
     54         57.174825   0.000000
     55         57.388263   0.000000
     56         57.388298   0.000000
     57         57.388298   0.000000
     58         62.565257   0.000000
     59         63.585556   0.000000
     60         72.378341   0.000000
     61         72.378342   0.000000
     62         75.401729   0.000000
     63         75.401844   0.000000
     64         75.401844   0.000000
 
  0.2000000E+00  0.5388760E-17 -0.7440118E-15  0.6400000E-01
      1         -5.962802   1.000000
      2          2.475615   1.000000
      3          4.908328   1.000000
      4          4.908335   1.000000
      5          7.709189   0.000000
      6          8.854697   0.000000
      7          8.854710   0.000000
      8         11.544937   0.000000
      9         12.578723   0.000000
     10         12.578733   0.000000
     11         14.638836   0.000000
     12         16.455193   0.000000
     13         19.286574   0.000000
     14         19.286579   0.000000
     15         23.422622   0.000000
     16         24.662395   0.000000
     17         24.662493   0.000000
     18         25.643815   0.000000
     19         29.729955   0.000000
     20         29.730205   0.000000
     21         32.165316   0.000000
     22         32.165320   0.000000
     23         33.957166   0.000000
     24         35.224175   0.000000
     25         35.931492   0.000000
     26         38.481070   0.000000
     27         38.481222   0.000000
     28         39.617718   0.000000
     29         39.617805   0.000000
     30         40.494714   0.000000
     31         40.494936   0.000000
     32         43.458300   0.000000
     33         43.458322   0.000000
     34         44.581650   0.000000
     35         45.685372   0.000000
     36         45.970507   0.000000
     37         47.113896   0.000000
     38         47.114004   0.000000
     39         49.427832   0.000000
     40         49.560226   0.000000
     41         49.560297   0.000000
     42         49.658914   0.000000
     43         50.377695   0.000000
     44         51.866186   0.000000
     45         51.866418   0.000000
     46         54.975436   0.000000
     47         54.975509   0.000000
     48         55.043972   0.000000
     49         55.113461   0.000000
     50         55.113515   0.000000
     51         57.620854   0.000000
     52         57.876420   0.000000
     53         60.261896   0.000000
     54         60.261942   0.000000
     55         61.931189   0.000000
     56         61.931235   0.000000
     57         62.553605   0.000000
     58         65.606265   0.000000
     59         67.018094   0.000000
     60         67.018154   0.000000
     61         68.617310   0.000000
     62         69.977795   0.000000
     63         70.913191   0.000000
     64         70.913574   0.000000
 
  0.4000000E+00 -0.4626824E-17 -0.5028386E-14  0.6400000E-01
      1         -4.600221   1.000000
      2         -0.791379   1.000000
      3          4.358692   1.000000
      4          4.358700   1.000000
      5          7.109530   0.000000
      6          8.908884   0.000000
      7          8.908904   0.000000
      8         13.328912   0.000000
      9         14.518384   0.000000
     10         14.518427   0.000000
     11         15.597373   0.000000
     12         18.758165   0.000000
     13         18.758231   0.000000
     14         19.514210   0.000000
     15         22.562264   0.000000
     16         24.719883   0.000000
     17         24.719886   0.000000
     18         28.517450   0.000000
     19         29.356761   0.000000
     20         29.367474   0.000000
     21         29.367632   0.000000
     22         32.401075   0.000000
     23         32.401078   0.000000
     24         33.525927   0.000000
     25         33.526032   0.000000
     26         35.281452   0.000000
     27         36.284947   0.000000
     28         38.186485   0.000000
     29         38.186553   0.000000
     30         39.026915   0.000000
     31         39.027009   0.000000
     32         39.934664   0.000000
     33         42.523159   0.000000
     34         42.888636   0.000000
     35         46.511152   0.000000
     36         46.511236   0.000000
     37         47.887558   0.000000
     38         47.887710   0.000000
     39         48.503655   0.000000
     40         49.659956   0.000000
     41         50.164531   0.000000
     42         50.164665   0.000000
     43         53.335187   0.000000
     44         54.845195   0.000000
     45         54.845786   0.000000
     46         57.454887   0.000000
     47         57.455013   0.000000
     48         59.044112   0.000000
     49         59.886577   0.000000
     50         60.678563   0.000000
     51         60.678604   0.000000
     52         61.894966   0.000000
     53         61.895178   0.000000
     54         62.925148   0.000000
     55         62.925168   0.000000
     56         64.756686   0.000000
     57         65.690921   0.000000
     58         67.062934   0.000000
     59         67.119200   0.000000
     60         67.119308   0.000000
     61         67.579381   0.000000
     62         68.946865   0.000000
     63         68.947041   0.000000
     64         70.551828   0.000000
 
  0.2000000E+00  0.2000000E+00  0.1676117E-16  0.4800000E-01
      1         -5.784823   1.000000
      2          2.863060   1.000000
      3          3.996278   1.000000
      4          3.996283   1.000000
      5          6.947594   0.000000
      6          9.382926   0.000000
      7         10.391236   0.000000
      8         10.391243   0.000000
      9         12.599547   0.000000
     10         14.038134   0.000000
     11         15.890030   0.000000
     12         17.951331   0.000000
     13         17.951335   0.000000
     14         18.587979   0.000000
     15         24.194126   0.000000
     16         24.194136   0.000000
     17         24.992389   0.000000
     18         25.359040   0.000000
     19         26.887512   0.000000
     20         29.844466   0.000000
     21         32.422506   0.000000
     22         32.953550   0.000000
     23         32.953602   0.000000
     24         36.574167   0.000000
     25         36.574208   0.000000
     26         36.889227   0.000000
     27         38.060519   0.000000
     28         39.348753   0.000000
     29         39.348792   0.000000
     30         39.499240   0.000000
     31         41.241857   0.000000
     32         43.329743   0.000000
     33         44.071494   0.000000
     34         44.071543   0.000000
     35         46.203231   0.000000
     36         46.553982   0.000000
     37         46.882204   0.000000
     38         46.882230   0.000000
     39         46.951686   0.000000
     40         49.763564   0.000000
     41         49.763617   0.000000
     42         50.824136   0.000000
     43         51.162476   0.000000
     44         52.749689   0.000000
     45         52.749716   0.000000
     46         53.373233   0.000000
     47         55.039399   0.000000
     48         55.146876   0.000000
     49         55.146907   0.000000
     50         55.396784   0.000000
     51         56.226101   0.000000
     52         59.012060   0.000000
     53         60.658254   0.000000
     54         60.658287   0.000000
     55         61.035471   0.000000
     56         63.648030   0.000000
     57         66.258783   0.000000
     58         66.258828   0.000000
     59         67.213010   0.000000
     60         67.644605   0.000000
     61         70.118829   0.000000
     62         70.118962   0.000000
     63         70.813756   0.000000
     64         72.655155   0.000000
 
  0.4000000E+00  0.2000000E+00 -0.4209018E-14  0.1920000E+00
      1         -4.643087   1.000000
      2          0.174547   1.000000
      3          2.858595   1.000000
      4          3.487304   1.000000
      5          7.264003   0.000000
      6          9.583587   0.000000
      7         10.433580   0.000000
      8         10.938071   0.000000
      9         15.664664   0.000000
     10         15.950947   0.000000
     11         16.271161   0.000000
     12         18.372142   0.000000
     13         19.001665   0.000000
     14         20.710880   0.000000
     15         21.951855   0.000000
     16         23.515213   0.000000
     17         25.047774   0.000000
     18         25.518065   0.000000
     19         27.501399   0.000000
     20         29.292379   0.000000
     21         30.315128   0.000000
     22         31.517478   0.000000
     23         32.585983   0.000000
     24         33.446757   0.000000
     25         34.721382   0.000000
     26         36.191744   0.000000
     27         36.510579   0.000000
     28         36.876627   0.000000
     29         38.512564   0.000000
     30         40.238954   0.000000
     31         41.233728   0.000000
     32         42.050151   0.000000
     33         42.755595   0.000000
     34         42.799062   0.000000
     35         44.598466   0.000000
     36         45.654556   0.000000
     37         48.459042   0.000000
     38         48.969141   0.000000
     39         49.830659   0.000000
     40         50.079509   0.000000
     41         50.460021   0.000000
     42         50.909535   0.000000
     43         52.650173   0.000000
     44         52.990632   0.000000
     45         53.452744   0.000000
     46         54.129831   0.000000
     47         55.619126   0.000000
     48         57.693139   0.000000
     49         57.949822   0.000000
     50         59.508980   0.000000
     51         61.331616   0.000000
     52         62.380066   0.000000
     53         62.965283   0.000000
     54         63.908442   0.000000
     55         65.130816   0.000000
     56         66.200150   0.000000
     57         66.533978   0.000000
     58         66.730946   0.000000
     59         66.961218   0.000000
     60         68.354518   0.000000
     61         68.670870   0.000000
     62         69.589955   0.000000
     63         70.127759   0.000000
     64         70.671404   0.000000
 
 -0.4000000E+00  0.2000000E+00 -0.4925815E-14  0.1920000E+00
      1         -3.758398   1.000000
      2         -1.220797   1.000000
      3          2.048611   1.000000
      4          3.770084   1.000000
      5          7.547414   0.000000
      6         10.105655   0.000000
      7         10.299253   0.000000
      8         13.078327   0.000000
      9         13.886129   0.000000
     10         13.966429   0.000000
     11         17.115860   0.000000
     12         19.636305   0.000000
     13         20.165505   0.000000
     14         20.704872   0.000000
     15         22.763037   0.000000
     16         25.245239   0.000000
     17         25.487897   0.000000
     18         25.862978   0.000000
     19         27.337402   0.000000
     20         27.479854   0.000000
     21         30.468581   0.000000
     22         31.569079   0.000000
     23         32.068765   0.000000
     24         32.081939   0.000000
     25         32.985713   0.000000
     26         34.293140   0.000000
     27         34.982267   0.000000
     28         37.018781   0.000000
     29         37.855689   0.000000
     30         39.548849   0.000000
     31         41.266700   0.000000
     32         41.562825   0.000000
     33         42.288741   0.000000
     34         42.346111   0.000000
     35         44.263595   0.000000
     36         46.679658   0.000000
     37         48.029128   0.000000
     38         48.565959   0.000000
     39         49.433328   0.000000
     40         51.121636   0.000000
     41         53.023992   0.000000
     42         53.754494   0.000000
     43         54.443750   0.000000
     44         54.815136   0.000000
     45         54.832525   0.000000
     46         55.442925   0.000000
     47         56.652663   0.000000
     48         58.528545   0.000000
     49         59.708025   0.000000
     50         60.104425   0.000000
     51         60.536009   0.000000
     52         62.036766   0.000000
     53         62.208069   0.000000
     54         62.546320   0.000000
     55         63.372200   0.000000
     56         64.031001   0.000000
     57         65.483781   0.000000
     58         66.858457   0.000000
     59         66.961492   0.000000
     60         68.326618   0.000000
     61         68.399451   0.000000
     62         69.506036   0.000000
     63         70.120048   0.000000
     64         71.989178   0.000000
 
 -0.2000000E+00  0.2000000E+00  0.1422590E-14  0.9600000E-01
      1         -5.131029   1.000000
      2          1.008291   1.000000
      3          2.480968   1.000000
      4          4.641376   1.000000
      5          8.383971   0.000000
      6          9.483712   0.000000
      7          9.814795   0.000000
      8         11.236012   0.000000
      9         11.633341   0.000000
     10         16.224821   0.000000
     11         16.321264   0.000000
     12         17.434825   0.000000
     13         19.356373   0.000000
     14         20.446317   0.000000
     15         22.596161   0.000000
     16         23.955229   0.000000
     17         25.491773   0.000000
     18         25.922845   0.000000
     19         27.716783   0.000000
     20         27.933376   0.000000
     21         31.708568   0.000000
     22         32.221657   0.000000
     23         33.328320   0.000000
     24         34.271761   0.000000
     25         35.236252   0.000000
     26         35.424194   0.000000
     27         37.266615   0.000000
     28         38.712480   0.000000
     29         39.284412   0.000000
     30         40.058831   0.000000
     31         40.979947   0.000000
     32         41.431948   0.000000
     33         43.533674   0.000000
     34         43.779429   0.000000
     35         44.828617   0.000000
     36         45.170650   0.000000
     37         45.224033   0.000000
     38         46.480113   0.000000
     39         48.580848   0.000000
     40         50.382221   0.000000
     41         50.825942   0.000000
     42         51.041416   0.000000
     43         53.221193   0.000000
     44         53.878507   0.000000
     45         54.368063   0.000000
     46         55.049265   0.000000
     47         55.206612   0.000000
     48         56.553727   0.000000
     49         59.241773   0.000000
     50         59.616247   0.000000
     51         59.965864   0.000000
     52         61.460619   0.000000
     53         61.478749   0.000000
     54         62.033120   0.000000
     55         63.596459   0.000000
     56         63.805024   0.000000
     57         65.106083   0.000000
     58         66.763412   0.000000
     59         66.766741   0.000000
     60         66.778430   0.000000
     61         67.519450   0.000000
     62         69.307740   0.000000
     63         70.039664   0.000000
     64         70.312598   0.000000
 
  0.4000000E+00  0.4000000E+00  0.1417691E-15  0.4800000E-01
      1         -3.767032   1.000000
      2         -0.694371   1.000000
      3          2.787302   1.000000
      4          2.787307   1.000000
      5          6.068048   0.000000
      6          6.800534   0.000000
      7         14.027615   0.000000
      8         14.027622   0.000000
      9         16.356087   0.000000
     10         16.741324   0.000000
     11         18.169664   0.000000
     12         18.169671   0.000000
     13         19.308639   0.000000
     14         20.195673   0.000000
     15         22.079960   0.000000
     16         22.823525   0.000000
     17         22.823528   0.000000
     18         24.440210   0.000000
     19         28.307206   0.000000
     20         28.800668   0.000000
     21         28.800682   0.000000
     22         29.607693   0.000000
     23         30.302562   0.000000
     24         32.700429   0.000000
     25         34.789556   0.000000
     26         34.789609   0.000000
     27         35.655405   0.000000
     28         40.377328   0.000000
     29         40.377360   0.000000
     30         40.977586   0.000000
     31         41.489547   0.000000
     32         41.911589   0.000000
     33         44.759453   0.000000
     34         45.319646   0.000000
     35         45.319668   0.000000
     36         45.812737   0.000000
     37         45.812809   0.000000
     38         46.409987   0.000000
     39         47.705431   0.000000
     40         48.253354   0.000000
     41         49.504469   0.000000
     42         49.504479   0.000000
     43         51.795604   0.000000
     44         55.173197   0.000000
     45         55.173291   0.000000
     46         56.256664   0.000000
     47         58.678542   0.000000
     48         60.058559   0.000000
     49         60.553844   0.000000
     50         61.540374   0.000000
     51         61.540419   0.000000
     52         61.671965   0.000000
     53         61.737214   0.000000
     54         62.879898   0.000000
     55         62.879922   0.000000
     56         65.080835   0.000000
     57         66.642159   0.000000
     58         66.642221   0.000000
     59         67.507850   0.000000
     60         69.425289   0.000000
     61         69.851967   0.000000
     62         70.605324   0.000000
     63         70.605366   0.000000
     64         71.638929   0.000000
 
 -0.4000000E+00  0.4000000E+00 -0.5869361E-15  0.9600000E-01
      1         -2.561556   1.000000
      2         -1.956859   1.000000
      3          1.414950   1.000000
      4          2.906114   1.000000
      5          6.517313   0.000000
      6          8.646102   0.000000
      7         13.597687   0.000000
      8         14.193861   0.000000
      9         14.225594   0.000000
     10         14.606737   0.000000
     11         19.849880   0.000000
     12         19.972484   0.000000
     13         20.311234   0.000000
     14         21.359204   0.000000
     15         21.867399   0.000000
     16         22.402466   0.000000
     17         25.457660   0.000000
     18         26.421721   0.000000
     19         26.503599   0.000000
     20         26.570386   0.000000
     21         27.883422   0.000000
     22         29.007175   0.000000
     23         29.947871   0.000000
     24         30.869151   0.000000
     25         35.049771   0.000000
     26         35.853570   0.000000
     27         36.132853   0.000000
     28         37.217798   0.000000
     29         40.150278   0.000000
     30         40.478104   0.000000
     31         40.787779   0.000000
     32         41.224371   0.000000
     33         41.974394   0.000000
     34         43.650778   0.000000
     35         44.638202   0.000000
     36         46.268348   0.000000
     37         47.665594   0.000000
     38         48.627687   0.000000
     39         49.686093   0.000000
     40         49.900647   0.000000
     41         51.274268   0.000000
     42         52.028670   0.000000
     43         54.643036   0.000000
     44         55.139056   0.000000
     45         55.182485   0.000000
     46         57.772301   0.000000
     47         58.431016   0.000000
     48         58.451036   0.000000
     49         59.495235   0.000000
     50         60.338283   0.000000
     51         60.540682   0.000000
     52         60.675740   0.000000
     53         61.510005   0.000000
     54         61.998136   0.000000
     55         63.471687   0.000000
     56         64.601832   0.000000
     57         66.609925   0.000000
     58         68.065794   0.000000
     59         68.429028   0.000000
     60         68.848476   0.000000
     61         69.838730   0.000000
     62         69.839183   0.000000
     63         70.496777   0.000000
     64         71.415286   0.000000
 
 -0.4000000E+00  0.4000000E+00  0.2000000E+00  0.1920000E+00
      1         -3.327646   1.000000
      2         -1.078494   1.000000
      3          1.500234   1.000000
      4          2.488728   1.000000
      5          8.889419   0.000000
      6          9.268807   0.000000
      7          9.926780   0.000000
      8         13.297615   0.000000
      9         13.976679   0.000000
     10         15.728628   0.000000
     11         18.856005   0.000000
     12         19.962976   0.000000
     13         20.048935   0.000000
     14         21.198551   0.000000
     15         22.082223   0.000000
     16         24.283418   0.000000
     17         25.497477   0.000000
     18         25.748336   0.000000
     19         26.268707   0.000000
     20         27.011795   0.000000
     21         28.800595   0.000000
     22         28.999940   0.000000
     23         31.527791   0.000000
     24         33.620595   0.000000
     25         34.438029   0.000000
     26         34.876359   0.000000
     27         35.598420   0.000000
     28         35.907901   0.000000
     29         37.363653   0.000000
     30         38.423612   0.000000
     31         40.585151   0.000000
     32         42.952702   0.000000
     33         43.117473   0.000000
     34         44.552695   0.000000
     35         46.442285   0.000000
     36         46.534185   0.000000
     37         48.575321   0.000000
     38         48.843233   0.000000
     39         49.461785   0.000000
     40         49.550405   0.000000
     41         50.951019   0.000000
     42         51.482277   0.000000
     43         53.469799   0.000000
     44         54.191085   0.000000
     45         55.519592   0.000000
     46         57.594437   0.000000
     47         57.923458   0.000000
     48         58.969641   0.000000
     49         59.273563   0.000000
     50         59.740993   0.000000
     51         59.797116   0.000000
     52         61.937505   0.000000
     53         62.897783   0.000000
     54         63.473320   0.000000
     55         63.666309   0.000000
     56         64.106072   0.000000
     57         65.729954   0.000000
     58         66.118977   0.000000
     59         67.649364   0.000000
     60         68.156213   0.000000
     61         69.476509   0.000000
     62         70.085412   0.000000
     63         70.579706   0.000000
     64         70.718613   0.000000
