       N       E                     dE             d eps       ncg     rms          rms(c)
DIA:   1    -0.107629625336E+02   -0.10763E+02    0.00000E+00     0   0.000E+00    0.882E-07
DIA:   2    -0.107629625337E+02   -0.35101E-10    0.00000E+00     0   0.000E+00
   1 F= -.10762963E+02 E0= -.10762963E+02  d E =-.183544E-13
 imaginary and real dielectric function
