 vasp.6.3.2 27Jun22 (build Dec 02 2024 22:47:12) complex                        
  
 executed on             LinuxIFC date 2024.12.19  22:03:57
 running on    8 total cores
 distrk:  each k-point on    8 cores,    1 groups
 distr:  one band on NCORE=   1 cores,    8 groups


--------------------------------------------------------------------------------------------------------


 INCAR:
   SYSTEM = DFT Virtual Orbitals for Silicon
   ALGO = Exact
   NBANDS = 64
   LOPTICS = .TRUE.
   CSHIFT = 0.1
   NEDOS = 2000
   LPEAD = .TRUE.
   ISMEAR = 0
   SIGMA = 0.05
   EDIFF = 1E-8

 POTCAR:    PAW_PBE Si_GW 04May2012               
 -----------------------------------------------------------------------------
|                                                                             |
|           W    W    AA    RRRRR   N    N  II  N    N   GGGG   !!!           |
|           W    W   A  A   R    R  NN   N  II  NN   N  G    G  !!!           |
|           W    W  A    A  R    R  N N  N  II  N N  N  G       !!!           |
|           W WW W  AAAAAA  RRRRR   N  N N  II  N  N N  G  GGG   !            |
|           WW  WW  A    A  R   R   N   NN  II  N   NN  G    G                |
|           W    W  A    A  R    R  N    N  II  N    N   GGGG   !!!           |
|                                                                             |
|     For optimal performance we recommend to set                             |
|       NCORE = 2 up to number-of-cores-per-socket                            |
|     NCORE specifies how many cores store one orbital (NPAR=cpu/NCORE).      |
|     This setting can greatly improve the performance of VASP for DFT.       |
|     The default, NCORE=1 might be grossly inefficient on modern             |
|     multi-core architectures or massively parallel machines. Do your        |
|     own testing! More info at https://www.vasp.at/wiki/index.php/NCORE      |
|     Unfortunately you need to use the default for GW and RPA                |
|     calculations (for HF NCORE is supported but not extensively tested      |
|     yet).                                                                   |
|                                                                             |
 -----------------------------------------------------------------------------

 POTCAR:    PAW_PBE Si_GW 04May2012               
   VRHFIN =Si: s2p2                                                                                 
   LEXCH  = PE                                                                                      
   EATOM  =   103.0669 eV,    7.5752 Ry                                                             
                                                                                                    
   TITEL  = PAW_PBE Si_GW 04May2012                                                                 
   LULTRA =        F    use ultrasoft PP ?                                                          
   IUNSCR =        1    unscreen: 0-lin 1-nonlin 2-no                                               
   RPACOR =    1.500    partial core radius                                                         
   POMASS =   28.085; ZVAL   =    4.000    mass and valenz                                          
   RCORE  =    1.900    outmost cutoff radius                                                       
   RWIGS  =    2.480; RWIGS  =    1.312    wigner-seitz radius (au A)                               
   ENMAX  =  245.345; ENMIN  =  184.009 eV                                                          
   ICORE  =        3    local potential                                                             
   LCOR   =        T    correct aug charges                                                         
   LPAW   =        T    paw PP                                                                      
   EAUG   =  412.952                                                                                
   DEXC   =    0.000                                                                                
   RMAX   =    1.950    core radius for proj-oper                                                   
   RAUG   =    1.300    factor for augmentation sphere                                              
   RDEP   =    1.993    radius for radial grids                                                     
   RDEPT  =    2.000    core radius for aug-charge                                                  
                                                                                                    
   Atomic configuration                                                                             
    7 entries                                                                                       
     n  l   j            E        occ.                                                              
     1  0  0.50     -1785.8828   2.0000                                                             
     2  0  0.50      -139.4969   2.0000                                                             
     2  1  1.50       -95.5546   6.0000                                                             
     3  0  0.50       -10.8127   2.0000                                                             
     3  1  0.50        -4.0811   2.0000                                                             
     3  2  1.50        -4.0817   0.0000                                                             
     4  3  2.50        -4.0817   0.0000                                                             
   Description                                                                                      
     l       E           TYP  RCUT    TYP  RCUT                                                     
     0    -10.8127223     23  1.900                                                                 
     0     95.2407820     23  1.900                                                                 
     1     -4.0811372     23  1.900                                                                 
     1     54.4233040     23  1.900                                                                 
     2     -8.1634956     23  1.900                                                                 
     2     81.6349560     23  1.900                                                                 
     3     27.2116520     23  1.900                                                                 
  local pseudopotential read in
  partial core-charges read in
  partial kinetic energy density read in
  kinetic energy density of atom read in
  atomic valenz-charges read in
  non local Contribution for L=           0  read in
    real space projection operators read in
  non local Contribution for L=           0  read in
    real space projection operators read in
  non local Contribution for L=           1  read in
    real space projection operators read in
  non local Contribution for L=           1  read in
    real space projection operators read in
  non local Contribution for L=           2  read in
    real space projection operators read in
  non local Contribution for L=           2  read in
    real space projection operators read in
    PAW grid and wavefunctions read in
 
   number of l-projection  operators is LMAX  =           6
   number of lm-projection operators is LMMAX =          18
 
  PAW_PBE Si_GW 04May2012               :
 energy of atom  1       EATOM= -103.0669
 kinetic energy error for atom=    0.0056 (will be added to EATOM!!)
 
 
 POSCAR: system Si
  positions in cartesian coordinates
  No initial velocities read in
 exchange correlation table for  LEXCH =        8
   RHO(1)=    0.500       N(1)  =     2000
   RHO(2)=  100.500       N(2)  =     4000
 


--------------------------------------------------------------------------------------------------------


 ion  position               nearest neighbor table
   1  0.000  0.000  0.000-   2 2.35   2 2.35   2 2.35   2 2.35
   2  0.250  0.250  0.250-   1 2.35   1 2.35   1 2.35   1 2.35
 
  LATTYP: Found a face centered cubic cell.
 ALAT       =     5.4300000000
  
  Lattice vectors:
  
 A1 = (   2.7150000000,   2.7150000000,   0.0000000000)
 A2 = (   0.0000000000,   2.7150000000,   2.7150000000)
 A3 = (   2.7150000000,   0.0000000000,   2.7150000000)


Analysis of symmetry for initial positions (statically):
=====================================================================
 Subroutine PRICEL returns:
 Original cell was already a primitive cell.
 

 Routine SETGRP: Setting up the symmetry group for a 
 face centered cubic supercell.


 Subroutine GETGRP returns: Found 48 space group operations
 (whereof 24 operations were pure point group operations)
 out of a pool of 48 trial point group operations.


The static configuration has the point symmetry T_d .
 The point group associated with its full space group is O_h .


Analysis of symmetry for dynamics (positions and initial velocities):
=====================================================================
 Subroutine PRICEL returns:
 Original cell was already a primitive cell.
 

 Routine SETGRP: Setting up the symmetry group for a 
 face centered cubic supercell.


 Subroutine GETGRP returns: Found 48 space group operations
 (whereof 24 operations were pure point group operations)
 out of a pool of 48 trial point group operations.


The dynamic configuration has the point symmetry T_d .
 The point group associated with its full space group is O_h .


 Subroutine INISYM returns: Found 48 space group operations
 (whereof 24 operations are pure point group operations),
 and found     1 'primitive' translations


----------------------------------------------------------------------------------------

                                     Primitive cell                                     

  volume of cell :      40.0258

  direct lattice vectors                    reciprocal lattice vectors
     2.715000000  2.715000000  0.000000000     0.184162063  0.184162063 -0.184162063
     0.000000000  2.715000000  2.715000000    -0.184162063  0.184162063  0.184162063
     2.715000000  0.000000000  2.715000000     0.184162063 -0.184162063  0.184162063

  length of vectors
     3.839589822  3.839589822  3.839589822     0.318978049  0.318978049  0.318978049

  position of ions in fractional coordinates (direct lattice)
     0.000000000  0.000000000  0.000000000
     0.250000000  0.250000000  0.250000000

  ion indices of the primitive-cell ions
   primitive index   ion index
                 1           1
                 2           2

----------------------------------------------------------------------------------------

 
 -----------------------------------------------------------------------------
|                                                                             |
|           W    W    AA    RRRRR   N    N  II  N    N   GGGG   !!!           |
|           W    W   A  A   R    R  NN   N  II  NN   N  G    G  !!!           |
|           W    W  A    A  R    R  N N  N  II  N N  N  G       !!!           |
|           W WW W  AAAAAA  RRRRR   N  N N  II  N  N N  G  GGG   !            |
|           WW  WW  A    A  R   R   N   NN  II  N   NN  G    G                |
|           W    W  A    A  R    R  N    N  II  N    N   GGGG   !!!           |
|                                                                             |
|     The requested file  could not be found or opened for reading            |
|     k-point information. Automatic k-point generation is used as a          |
|     fallback, which may lead to unwanted results.                           |
|                                                                             |
 -----------------------------------------------------------------------------

 

Automatic generation of k-mesh.
 Grid dimensions derived from KSPACING:
 generate k-points for:    5    5    5

 Generating k-lattice:

  Cartesian coordinates                     Fractional coordinates (reciprocal lattice)
     0.036832413  0.036832413 -0.036832413     0.200000000  0.000000000  0.000000000
    -0.036832413  0.036832413  0.036832413     0.000000000  0.200000000 -0.000000000
     0.036832413 -0.036832413  0.036832413    -0.000000000 -0.000000000  0.200000000

  Length of vectors
     0.063795610  0.063795610  0.063795610

  Shift w.r.t. Gamma in fractional coordinates (k-lattice)
     0.000000000  0.000000000  0.000000000

 
 Subroutine IBZKPT returns following result:
 ===========================================
 
 Found     10 irreducible k-points:
 
 Following reciprocal coordinates:
            Coordinates               Weight
  0.000000  0.000000  0.000000      1.000000
  0.200000  0.000000 -0.000000      8.000000
  0.400000 -0.000000 -0.000000      8.000000
  0.200000  0.200000  0.000000      6.000000
  0.400000  0.200000 -0.000000     24.000000
 -0.400000  0.200000 -0.000000     24.000000
 -0.200000  0.200000  0.000000     12.000000
  0.400000  0.400000  0.000000      6.000000
 -0.400000  0.400000 -0.000000     12.000000
 -0.400000  0.400000  0.200000     24.000000
 
 Following cartesian coordinates:
            Coordinates               Weight
  0.000000  0.000000  0.000000      1.000000
  0.200000  0.200000 -0.200000      8.000000
  0.400000  0.400000 -0.400000      8.000000
  0.000000  0.400000  0.000000      6.000000
  0.200000  0.600000 -0.200000     24.000000
 -0.600000 -0.200000  0.600000     24.000000
 -0.400000 -0.000000  0.400000     12.000000
  0.000000  0.800000  0.000000      6.000000
 -0.800000  0.000000  0.800000     12.000000
 -0.600000 -0.200000  1.000000     24.000000
 
 
 Subroutine IBZKPT_HF returns following result:
 ==============================================
 
 Found    125 k-points in 1st BZ
 the following    125 k-points will be used (e.g. in the exchange kernel)
 Following reciprocal coordinates:   # in IRBZ
  0.000000  0.000000  0.000000    0.00800000   1 t-inv F
  0.200000  0.000000 -0.000000    0.00800000   2 t-inv F
  0.400000 -0.000000 -0.000000    0.00800000   3 t-inv F
  0.200000  0.200000  0.000000    0.00800000   4 t-inv F
  0.400000  0.200000 -0.000000    0.00800000   5 t-inv F
 -0.400000  0.200000 -0.000000    0.00800000   6 t-inv F
 -0.200000  0.200000  0.000000    0.00800000   7 t-inv F
  0.400000  0.400000  0.000000    0.00800000   8 t-inv F
 -0.400000  0.400000 -0.000000    0.00800000   9 t-inv F
 -0.400000  0.400000  0.200000    0.00800000  10 t-inv F
 -0.000000  0.200000  0.000000    0.00800000   2 t-inv F
  0.000000 -0.000000  0.200000    0.00800000   2 t-inv F
 -0.200000 -0.200000 -0.200000    0.00800000   2 t-inv F
 -0.200000 -0.000000  0.000000    0.00800000   2 t-inv F
  0.000000 -0.200000 -0.000000    0.00800000   2 t-inv F
 -0.000000  0.000000 -0.200000    0.00800000   2 t-inv F
  0.200000  0.200000  0.200000    0.00800000   2 t-inv F
 -0.000000  0.400000 -0.000000    0.00800000   3 t-inv F
 -0.000000 -0.000000  0.400000    0.00800000   3 t-inv F
 -0.400000 -0.400000 -0.400000    0.00800000   3 t-inv F
 -0.400000  0.000000  0.000000    0.00800000   3 t-inv F
  0.000000 -0.400000  0.000000    0.00800000   3 t-inv F
  0.000000  0.000000 -0.400000    0.00800000   3 t-inv F
  0.400000  0.400000  0.400000    0.00800000   3 t-inv F
  0.000000  0.200000  0.200000    0.00800000   4 t-inv F
  0.200000  0.000000  0.200000    0.00800000   4 t-inv F
 -0.200000 -0.200000  0.000000    0.00800000   4 t-inv F
 -0.200000  0.000000 -0.200000    0.00800000   4 t-inv F
  0.000000 -0.200000 -0.200000    0.00800000   4 t-inv F
 -0.000000  0.400000  0.200000    0.00800000   5 t-inv F
  0.200000 -0.000000  0.400000    0.00800000   5 t-inv F
 -0.200000 -0.200000  0.200000    0.00800000   5 t-inv F
 -0.400000 -0.200000 -0.400000    0.00800000   5 t-inv F
  0.200000  0.400000  0.000000    0.00800000   5 t-inv F
  0.200000 -0.200000 -0.200000    0.00800000   5 t-inv F
 -0.400000 -0.400000 -0.200000    0.00800000   5 t-inv F
  0.000000  0.200000  0.400000    0.00800000   5 t-inv F
 -0.200000  0.200000 -0.200000    0.00800000   5 t-inv F
 -0.200000 -0.400000 -0.400000    0.00800000   5 t-inv F
  0.400000  0.000000  0.200000    0.00800000   5 t-inv F
 -0.400000 -0.200000  0.000000    0.00800000   5 t-inv F
  0.000000 -0.400000 -0.200000    0.00800000   5 t-inv F
 -0.200000  0.000000 -0.400000    0.00800000   5 t-inv F
  0.200000  0.200000 -0.200000    0.00800000   5 t-inv F
  0.400000  0.200000  0.400000    0.00800000   5 t-inv F
 -0.200000 -0.400000 -0.000000    0.00800000   5 t-inv F
 -0.200000  0.200000  0.200000    0.00800000   5 t-inv F
  0.400000  0.400000  0.200000    0.00800000   5 t-inv F
 -0.000000 -0.200000 -0.400000    0.00800000   5 t-inv F
  0.200000 -0.200000  0.200000    0.00800000   5 t-inv F
  0.200000  0.400000  0.400000    0.00800000   5 t-inv F
 -0.400000 -0.000000 -0.200000    0.00800000   5 t-inv F
 -0.000000 -0.400000  0.200000    0.00800000   6 t-inv F
  0.200000 -0.000000 -0.400000    0.00800000   6 t-inv F
 -0.200000 -0.200000 -0.600000    0.00800000   6 t-inv F
  0.400000  0.600000  0.400000    0.00800000   6 t-inv F
  0.200000 -0.400000  0.000000    0.00800000   6 t-inv F
 -0.600000 -0.200000 -0.200000    0.00800000   6 t-inv F
  0.400000  0.400000  0.600000    0.00800000   6 t-inv F
  0.000000  0.200000 -0.400000    0.00800000   6 t-inv F
 -0.200000 -0.600000 -0.200000    0.00800000   6 t-inv F
  0.600000  0.400000  0.400000    0.00800000   6 t-inv F
 -0.400000  0.000000  0.200000    0.00800000   6 t-inv F
  0.400000 -0.200000  0.000000    0.00800000   6 t-inv F
  0.000000  0.400000 -0.200000    0.00800000   6 t-inv F
 -0.200000  0.000000  0.400000    0.00800000   6 t-inv F
  0.200000  0.200000  0.600000    0.00800000   6 t-inv F
 -0.400000 -0.600000 -0.400000    0.00800000   6 t-inv F
 -0.200000  0.400000 -0.000000    0.00800000   6 t-inv F
  0.600000  0.200000  0.200000    0.00800000   6 t-inv F
 -0.400000 -0.400000 -0.600000    0.00800000   6 t-inv F
 -0.000000 -0.200000  0.400000    0.00800000   6 t-inv F
  0.200000  0.600000  0.200000    0.00800000   6 t-inv F
 -0.600000 -0.400000 -0.400000    0.00800000   6 t-inv F
  0.400000 -0.000000 -0.200000    0.00800000   6 t-inv F
  0.000000 -0.200000  0.200000    0.00800000   7 t-inv F
  0.200000  0.000000 -0.200000    0.00800000   7 t-inv F
 -0.200000 -0.200000 -0.400000    0.00800000   7 t-inv F
  0.200000  0.400000  0.200000    0.00800000   7 t-inv F
  0.200000 -0.200000 -0.000000    0.00800000   7 t-inv F
 -0.400000 -0.200000 -0.200000    0.00800000   7 t-inv F
  0.200000  0.200000  0.400000    0.00800000   7 t-inv F
 -0.000000  0.200000 -0.200000    0.00800000   7 t-inv F
 -0.200000 -0.400000 -0.200000    0.00800000   7 t-inv F
  0.400000  0.200000  0.200000    0.00800000   7 t-inv F
 -0.200000 -0.000000  0.200000    0.00800000   7 t-inv F
  0.000000  0.400000  0.400000    0.00800000   8 t-inv F
  0.400000  0.000000  0.400000    0.00800000   8 t-inv F
 -0.400000 -0.400000  0.000000    0.00800000   8 t-inv F
 -0.400000  0.000000 -0.400000    0.00800000   8 t-inv F
  0.000000 -0.400000 -0.400000    0.00800000   8 t-inv F
 -0.000000 -0.400000  0.400000    0.00800000   9 t-inv F
  0.400000 -0.000000 -0.400000    0.00800000   9 t-inv F
 -0.400000 -0.400000 -0.800000    0.00800000   9 t-inv F
  0.400000  0.800000  0.400000    0.00800000   9 t-inv F
  0.400000 -0.400000  0.000000    0.00800000   9 t-inv F
 -0.800000 -0.400000 -0.400000    0.00800000   9 t-inv F
  0.400000  0.400000  0.800000    0.00800000   9 t-inv F
  0.000000  0.400000 -0.400000    0.00800000   9 t-inv F
 -0.400000 -0.800000 -0.400000    0.00800000   9 t-inv F
  0.800000  0.400000  0.400000    0.00800000   9 t-inv F
 -0.400000  0.000000  0.400000    0.00800000   9 t-inv F
  0.200000 -0.400000  0.400000    0.00800000  10 t-inv F
  0.400000  0.200000 -0.400000    0.00800000  10 t-inv F
 -0.400000 -0.200000 -0.800000    0.00800000  10 t-inv F
  0.400000  0.800000  0.600000    0.00800000  10 t-inv F
 -0.200000 -0.600000  0.200000    0.00800000  10 t-inv F
  0.200000 -0.600000 -0.200000    0.00800000  10 t-inv F
 -0.800000 -0.200000 -0.400000    0.00800000  10 t-inv F
  0.600000  0.800000  0.400000    0.00800000  10 t-inv F
  0.600000  0.400000  0.800000    0.00800000  10 t-inv F
  0.200000 -0.200000 -0.600000    0.00800000  10 t-inv F
 -0.800000 -0.400000 -0.200000    0.00800000  10 t-inv F
 -0.200000  0.200000 -0.600000    0.00800000  10 t-inv F
 -0.400000 -0.800000 -0.200000    0.00800000  10 t-inv F
  0.400000  0.600000  0.800000    0.00800000  10 t-inv F
  0.800000  0.600000  0.400000    0.00800000  10 t-inv F
 -0.600000  0.200000 -0.200000    0.00800000  10 t-inv F
 -0.200000 -0.800000 -0.400000    0.00800000  10 t-inv F
 -0.600000 -0.200000  0.200000    0.00800000  10 t-inv F
 -0.200000 -0.400000 -0.800000    0.00800000  10 t-inv F
  0.800000  0.400000  0.600000    0.00800000  10 t-inv F
 -0.400000  0.200000  0.400000    0.00800000  10 t-inv F
  0.400000 -0.400000  0.200000    0.00800000  10 t-inv F
  0.200000  0.400000 -0.400000    0.00800000  10 t-inv F


--------------------------------------------------------------------------------------------------------




 Dimension of arrays:
   k-points           NKPTS =     10   k-points in BZ     NKDIM =     10   number of bands    NBANDS=     64
   number of dos      NEDOS =   2000   number of ions     NIONS =      2
   non local maximal  LDIM  =      6   non local SUM 2l+1 LMDIM =     18
   total plane-waves  NPLWV =   4096
   max r-space proj   IRMAX =      1   max aug-charges    IRDMAX=   5222
   dimension x,y,z NGX =    16 NGY =   16 NGZ =   16
   dimension x,y,z NGXF=    32 NGYF=   32 NGZF=   32
   support grid    NGXF=    32 NGYF=   32 NGZF=   32
   ions per type =               2
   NGX,Y,Z   is equivalent  to a cutoff of   6.93,  6.93,  6.93 a.u.
   NGXF,Y,Z  is equivalent  to a cutoff of  13.86, 13.86, 13.86 a.u.

 SYSTEM =  DFT Virtual Orbitals for Silicon        
 POSCAR =  system Si                               

 Startparameter for this run:
   NWRITE =      2    write-flag & timer
   PREC   = normal    normal or accurate (medium, high low for compatibility)
   ISTART =      1    job   : 0-new  1-cont  2-samecut
   ICHARG =      0    charge: 1-file 2-atom 10-const
   ISPIN  =      1    spin polarized calculation?
   LNONCOLLINEAR =      F non collinear calculations
   LSORBIT =      F    spin-orbit coupling
   INIWAV =      1    electr: 0-lowe 1-rand  2-diag
   LASPH  =      F    aspherical Exc in radial PAW
 Electronic Relaxation 1
   ENCUT  =  245.3 eV  18.03 Ry    4.25 a.u.   4.90  4.90  4.90*2*pi/ulx,y,z
   ENINI  =  245.3     initial cutoff
   ENAUG  =  413.0 eV  augmentation charge cutoff
   NELM   =     60;   NELMIN=  2; NELMDL=  0     # of ELM steps 
   EDIFF  = 0.1E-07   stopping-criterion for ELM
   LREAL  =      F    real-space projection
   NLSPLINE    = F    spline interpolate recip. space projectors
   LCOMPAT=      F    compatible to vasp.4.4
   GGA_COMPAT  = T    GGA compatible to vasp.4.4-vasp.4.6
   LMAXPAW     = -100 max onsite density
   LMAXMIX     =    2 max onsite mixed and CHGCAR
   VOSKOWN=      0    Vosko Wilk Nusair interpolation
   ROPT   =    0.00000
 Ionic relaxation
   EDIFFG = 0.1E-06   stopping-criterion for IOM
   NSW    =      0    number of steps for IOM
   NBLOCK =      1;   KBLOCK =      1    inner block; outer block 
   IBRION =     -1    ionic relax: 0-MD 1-quasi-New 2-CG
   NFREE  =      0    steps in history (QN), initial steepest desc. (CG)
   ISIF   =      2    stress and relaxation
   IWAVPR =     10    prediction:  0-non 1-charg 2-wave 3-comb
   ISYM   =      2    0-nonsym 1-usesym 2-fastsym
   LCORR  =      T    Harris-Foulkes like correction to forces

   POTIM  = 0.5000    time-step for ionic-motion
   TEIN   =    0.0    initial temperature
   TEBEG  =    0.0;   TEEND  =   0.0 temperature during run
   SMASS  =  -3.00    Nose mass-parameter (am)
   estimated Nose-frequenzy (Omega)   =  0.10E-29 period in steps = 0.13E+47 mass=  -0.337E-27a.u.
   SCALEE = 1.0000    scale energy and forces
   NPACO  =    256;   APACO  = 10.0  distance and # of slots for P.C.
   PSTRESS=    0.0 pullay stress

  Mass of Ions in am
   POMASS =  28.09
  Ionic Valenz
   ZVAL   =   4.00
  Atomic Wigner-Seitz radii
   RWIGS  =  -1.00
  virtual crystal weights 
   VCA    =   1.00
   NELECT =       8.0000    total number of electrons
   NUPDOWN=      -1.0000    fix difference up-down

 DOS related values:
   EMIN   =  10.00;   EMAX   =-10.00  energy-range for DOS
   EFERMI =   0.00
   ISMEAR =     0;   SIGMA  =   0.05  broadening in eV -4-tet -1-fermi 0-gaus

 Electronic relaxation 2 (details)
   IALGO  =     90    algorithm
   LDIAG  =      T    sub-space diagonalisation (order eigenvalues)
   LSUBROT=      F    optimize rotation matrix (better conditioning)
   TURBO    =      0    0=normal 1=particle mesh
   IRESTART =      0    0=no restart 2=restart with 2 vectors
   NREBOOT  =      0    no. of reboots
   NMIN     =      0    reboot dimension
   EREF     =   0.00    reference energy to select bands
   IMIX   =      4    mixing-type and parameters
     AMIX     =   0.40;   BMIX     =  1.00
     AMIX_MAG =   1.60;   BMIX_MAG =  1.00
     AMIN     =   0.10
     WC   =   100.;   INIMIX=   1;  MIXPRE=   1;  MAXMIX= -45

 Intra band minimization:
   WEIMIN = 0.0000     energy-eigenvalue tresh-hold
   EBREAK =  0.39E-10  absolut break condition
   DEPER  =   0.30     relativ break condition  

   TIME   =   0.40     timestep for ELM

  volume/ion in A,a.u.               =      20.01       135.05
  Fermi-wavevector in a.u.,A,eV,Ry     =   0.957176  1.808800 12.465458  0.916185
  Thomas-Fermi vector in A             =   2.086170
 
 Write flags
   LWAVE        =      T    write WAVECAR
   LDOWNSAMPLE  =      F    k-point downsampling of WAVECAR
   LCHARG       =      T    write CHGCAR
   LVTOT        =      F    write LOCPOT, total local potential
   LVHAR        =      F    write LOCPOT, Hartree potential only
   LELF         =      F    write electronic localiz. function (ELF)
   LORBIT       =      0    0 simple, 1 ext, 2 COOP (PROOUT), +10 PAW based schemes


 Dipole corrections
   LMONO  =      F    monopole corrections only (constant potential shift)
   LDIPOL =      F    correct potential (dipole corrections)
   IDIPOL =      0    1-x, 2-y, 3-z, 4-all directions 
   EPSILON=  1.0000000 bulk dielectric constant

 Exchange correlation treatment:
   GGA     =    --    GGA type
   LEXCH   =     8    internal setting for exchange type
   LIBXC   =     F    Libxc                    
   VOSKOWN =     0    Vosko Wilk Nusair interpolation
   LHFCALC =     F    Hartree Fock is set to
   LHFONE  =     F    Hartree Fock one center treatment
   AEXX    =    0.0000 exact exchange contribution

 Linear response parameters
   LEPSILON=     F    determine dielectric tensor
   LRPA    =     F    only Hartree local field effects (RPA)
   LNABLA  =     F    use nabla operator in PAW spheres
   LVEL    =     F    velocity operator in full k-point grid
   CSHIFT  =0.1000    complex shift for real part using Kramers Kronig
   OMEGAMAX=  -1.0    maximum frequency
   DEG_THRESHOLD= 0.2000000E-02 threshold for treating states as degnerate
   RTIME   =   -0.100 relaxation time in fs
  (WPLASMAI=    0.000 imaginary part of plasma frequency in eV, 0.658/RTIME)
   DFIELD  = 0.0000000 0.0000000 0.0000000 field for delta impulse in time
 
  Optional k-point grid parameters
   LKPOINTS_OPT  =     F    use optional k-point grid
   KPOINTS_OPT_MODE=     1    mode for optional k-point grid
 
 Orbital magnetization related:
   ORBITALMAG=     F  switch on orbital magnetization
   LCHIMAG   =     F  perturbation theory with respect to B field
   DQ        =  0.001000  dq finite difference perturbation B field
   LLRAUG    =     F  two centre corrections for induced B field

 PEAD related settings:
   LPEAD      =     T    switch on PEAD
   IPEAD      =     4    finite difference order for dpsi/dk
   LCALCPOL   =     F    calculate macroscopic polarization
   LCALCEPS   =     F    calculate dielectric tensor
   EFIELD_PEAD=    0.0000    0.0000    0.0000
   SKIP_EDOTP =     F
   LRPA       =     F
   SKIP_SCF   =     F


--------------------------------------------------------------------------------------------------------


 Static calculation
 charge density and potential will be updated during run
 non-spin polarized calculation
 Exact diagonalization
 preconditioned conjugated gradient (Jacobi prec)
    charged. constant during bandupdate  
    band-by band algorithm
 perform sub-space diagonalisation
    after iterative eigenvector-optimisation
 modified Broyden-mixing scheme, WC =      100.0
 initial mixing is a Kerker type mixing with AMIX =  0.4000 and BMIX =      1.0000
 Hartree-type preconditioning will be used
 using additional bands           60
 reciprocal scheme for non local part
 use partial core corrections
 calculate Harris-corrections to forces 
   (improved forces if not selfconsistent)
 use gradient corrections 
 use of overlap-Matrix (Vanderbilt PP)
 Gauss-broadening in eV      SIGMA  =   0.05


--------------------------------------------------------------------------------------------------------


  energy-cutoff  :      245.34
  volume of cell :       40.03
      direct lattice vectors                 reciprocal lattice vectors
     2.715000000  2.715000000  0.000000000     0.184162063  0.184162063 -0.184162063
     0.000000000  2.715000000  2.715000000    -0.184162063  0.184162063  0.184162063
     2.715000000  0.000000000  2.715000000     0.184162063 -0.184162063  0.184162063

  length of vectors
     3.839589822  3.839589822  3.839589822     0.318978049  0.318978049  0.318978049


 
 old parameters found on file WAVECAR:
  energy-cutoff  :      245.34
  volume of cell :       40.03
      direct lattice vectors                 reciprocal lattice vectors
     2.715000000  2.715000000  0.000000000     0.184162063  0.184162063 -0.184162063
     0.000000000  2.715000000  2.715000000    -0.184162063  0.184162063  0.184162063
     2.715000000  0.000000000  2.715000000     0.184162063 -0.184162063  0.184162063

  length of vectors

 
 k-points in units of 2pi/SCALE and weight: read from INCAR                         
   0.00000000  0.00000000  0.00000000       0.008
   0.20000000  0.20000000 -0.20000000       0.064
   0.40000000  0.40000000 -0.40000000       0.064
   0.00000000  0.40000000  0.00000000       0.048
   0.20000000  0.60000000 -0.20000000       0.192
  -0.60000000 -0.20000000  0.60000000       0.192
  -0.40000000 -0.00000000  0.40000000       0.096
   0.00000000  0.80000000  0.00000000       0.048
  -0.80000000  0.00000000  0.80000000       0.096
  -0.60000000 -0.20000000  1.00000000       0.192
 
 k-points in reciprocal lattice and weights: read from INCAR                         
   0.00000000  0.00000000  0.00000000       0.008
   0.20000000  0.00000000 -0.00000000       0.064
   0.40000000 -0.00000000 -0.00000000       0.064
   0.20000000  0.20000000  0.00000000       0.048
   0.40000000  0.20000000 -0.00000000       0.192
  -0.40000000  0.20000000 -0.00000000       0.192
  -0.20000000  0.20000000  0.00000000       0.096
   0.40000000  0.40000000  0.00000000       0.048
  -0.40000000  0.40000000 -0.00000000       0.096
  -0.40000000  0.40000000  0.20000000       0.192
 
 position of ions in fractional coordinates (direct lattice) 
   0.00000000  0.00000000  0.00000000
   0.25000000  0.25000000  0.25000000
 
 position of ions in cartesian coordinates  (Angst):
   0.00000000  0.00000000  0.00000000
   1.35750000  1.35750000  1.35750000
 


--------------------------------------------------------------------------------------------------------


 k-point   1 :   0.0000 0.0000 0.0000  plane waves:     339
 k-point   2 :   0.2000 0.0000-0.0000  plane waves:     341
 k-point   3 :   0.4000-0.0000-0.0000  plane waves:     353
 k-point   4 :   0.2000 0.2000 0.0000  plane waves:     347
 k-point   5 :   0.4000 0.2000-0.0000  plane waves:     345
 k-point   6 :  -0.4000 0.2000-0.0000  plane waves:     352
 k-point   7 :  -0.2000 0.2000 0.0000  plane waves:     343
 k-point   8 :   0.4000 0.4000 0.0000  plane waves:     343
 k-point   9 :  -0.4000 0.4000-0.0000  plane waves:     359
 k-point  10 :  -0.4000 0.4000 0.2000  plane waves:     353

 maximum and minimum number of plane-waves per node :       359      339

 maximum number of plane-waves:       359
 maximum index in each direction: 
   IXMAX=    5   IYMAX=    4   IZMAX=    4
   IXMIN=   -5   IYMIN=   -5   IZMIN=   -5


 serial   3D FFT for wavefunctions
 parallel 3D FFT for charge:
    minimum data exchange during FFTs selected (reduces bandwidth)


 total amount of memory used by VASP MPI-rank0    31604. kBytes
=======================================================================

   base      :      30000. kBytes
   nonl-proj :        529. kBytes
   fftplans  :        160. kBytes
   grid      :        372. kBytes
   one-center:         31. kBytes
   wavefun   :        512. kBytes
 
     INWAV:  cpu time      0.0134: real time      0.0191
 Broyden mixing: mesh for mixing (old mesh)
   NGX =  9   NGY =  9   NGZ =  9
  (NGX  = 32   NGY  = 32   NGZ  = 32)
  gives a total of    729 points

 charge density for first step will be calculated from the start-wavefunctions


--------------------------------------------------------------------------------------------------------


 Maximum index for augmentation-charges          649 (set IRDMAX)


--------------------------------------------------------------------------------------------------------


 initial charge from wavefunction
 First call to EWALD:  gamma=   0.518
 Maximum number of real-space cells 3x 3x 3
 Maximum number of reciprocal cells 3x 3x 3

    FEWALD:  cpu time      0.0005: real time      0.0017


--------------------------------------- Iteration      1(   1)  ---------------------------------------


    POTLOK:  cpu time      0.0021: real time      0.0180
    SETDIJ:  cpu time      0.0013: real time      0.0013

 total amount of memory used by VASP MPI-rank0    34484. kBytes
=======================================================================

   base      :      30000. kBytes
   nonl-proj :        529. kBytes
   fftplans  :        160. kBytes
   grid      :        372. kBytes
   one-center:         31. kBytes
   wavefun   :       3392. kBytes
 
    EDDIAG:  cpu time      0.4091: real time      0.4093
       DOS:  cpu time      0.0003: real time      0.0002
    CHARGE:  cpu time      0.0013: real time      0.0013
    MIXING:  cpu time      0.0003: real time      0.0186
    --------------------------------------------
      LOOP:  cpu time      0.4144: real time      0.4488

 eigenvalue-minimisations  :     0
 total energy-change (2. order) :-0.1076296E+02  ( 0.0000000E+00)
 number of electron       7.9999997 magnetization 
 augmentation part       -0.4735213 magnetization 

 Broyden mixing:
  rms(total) = 0.88186E-07    rms(broyden)= 0.50787E-08
  rms(prec ) = 0.20890E-07
  weight for this iteration     100.00
  WARNING: grid for Broyden might be to small

 Free energy of the ion-electron system (eV)
  ---------------------------------------------------
  alpha Z        PSCENC =         6.08881246
  Ewald energy   TEWEN  =      -228.56352493
  -Hartree energ DENC   =       -15.05814193
  -exchange      EXHF   =         0.00000000
  -V(xc)+E(xc)   XCENC  =       -18.19465901
  PAW double counting   =       264.85060328     -229.41914005
  entropy T*S    EENTRO =        -0.00000000
  eigenvalues    EBANDS =         3.41051533
  atomic energy  EATOM  =       206.12257231
  Solvation  Ediel_sol  =         0.00000000
  ---------------------------------------------------
  free energy    TOTEN  =       -10.76296253 eV

  energy without entropy =      -10.76296253  energy(sigma->0) =      -10.76296253


--------------------------------------------------------------------------------------------------------




--------------------------------------- Iteration      1(   2)  ---------------------------------------


    POTLOK:  cpu time      0.0038: real time      0.0093
    SETDIJ:  cpu time      0.0010: real time      0.0023

 total amount of memory used by VASP MPI-rank0    34484. kBytes
=======================================================================

   base      :      30000. kBytes
   nonl-proj :        529. kBytes
   fftplans  :        160. kBytes
   grid      :        372. kBytes
   one-center:         31. kBytes
   wavefun   :       3392. kBytes
 
    EDDIAG:  cpu time      0.3789: real time      0.3791
       DOS:  cpu time      0.0002: real time      0.0002
    --------------------------------------------
      LOOP:  cpu time      0.3839: real time      0.3909

 eigenvalue-minimisations  :     0
 total energy-change (2. order) :-0.3510081E-10  ( 0.0000000E+00)
 number of electron       7.9999997 magnetization 
 augmentation part       -0.4735213 magnetization 

 Free energy of the ion-electron system (eV)
  ---------------------------------------------------
  alpha Z        PSCENC =         6.08881246
  Ewald energy   TEWEN  =      -228.56352493
  -Hartree energ DENC   =       -15.05814188
  -exchange      EXHF   =         0.00000000
  -V(xc)+E(xc)   XCENC  =       -18.19465901
  PAW double counting   =       264.85060285     -229.41913962
  entropy T*S    EENTRO =        -0.00000000
  eigenvalues    EBANDS =         3.41051528
  atomic energy  EATOM  =       206.12257231
  Solvation  Ediel_sol  =         0.00000000
  ---------------------------------------------------
  free energy    TOTEN  =       -10.76296253 eV

  energy without entropy =      -10.76296253  energy(sigma->0) =      -10.76296253


--------------------------------------------------------------------------------------------------------




 average (electrostatic) potential at core
  the test charge radii are     1.1243
  (the norm of the test charge is              1.0000)
       1 -67.0195       2 -67.0195
 
 
 
 E-fermi :   5.7372     XC(G=0):  -9.3889     alpha+bet :-11.6158

 Fermi energy:         5.7372469614

 k-point     1 :       0.0000    0.0000    0.0000
  band No.  band energies     occupation 
      1      -6.4802      2.00000
      2       5.4906      2.00000
      3       5.4906      2.00000
      4       5.4906      2.00000
      5       8.0505      0.00000
      6       8.0505      0.00000
      7       8.0505      0.00000
      8       8.8522      0.00000
      9      13.2626      0.00000
     10      13.2626      0.00000
     11      13.4422      0.00000
     12      16.7548      0.00000
     13      16.7548      0.00000
     14      16.7548      0.00000
     15      20.8924      0.00000
     16      28.8233      0.00000
     17      28.8233      0.00000
     18      28.8233      0.00000
     19      29.9969      0.00000
     20      29.9969      0.00000
     21      31.3897      0.00000
     22      31.3897      0.00000
     23      31.3897      0.00000
     24      34.7592      0.00000
     25      34.7592      0.00000
     26      34.7593      0.00000
     27      40.8047      0.00000
     28      40.8049      0.00000
     29      40.8049      0.00000
     30      43.8873      0.00000
     31      44.6608      0.00000
     32      44.6608      0.00000
     33      46.3310      0.00000
     34      46.3310      0.00000
     35      47.8691      0.00000
     36      47.8691      0.00000
     37      47.8691      0.00000
     38      49.5411      0.00000
     39      49.5412      0.00000
     40      49.5412      0.00000
     41      50.1620      0.00000
     42      50.5560      0.00000
     43      50.5560      0.00000
     44      50.5560      0.00000
     45      50.5953      0.00000
     46      50.5953      0.00000
     47      50.5953      0.00000
     48      51.9425      0.00000
     49      51.9425      0.00000
     50      51.9426      0.00000
     51      55.9766      0.00000
     52      57.1748      0.00000
     53      57.1748      0.00000
     54      57.1748      0.00000
     55      57.3883      0.00000
     56      57.3883      0.00000
     57      57.3883      0.00000
     58      62.5653      0.00000
     59      63.5856      0.00000
     60      72.3783      0.00000
     61      72.3783      0.00000
     62      75.4017      0.00000
     63      75.4018      0.00000
     64      75.4018      0.00000

 k-point     2 :       0.2000    0.0000   -0.0000
  band No.  band energies     occupation 
      1      -5.9628      2.00000
      2       2.4756      2.00000
      3       4.9083      2.00000
      4       4.9083      2.00000
      5       7.7092      0.00000
      6       8.8547      0.00000
      7       8.8547      0.00000
      8      11.5449      0.00000
      9      12.5787      0.00000
     10      12.5787      0.00000
     11      14.6388      0.00000
     12      16.4552      0.00000
     13      19.2866      0.00000
     14      19.2866      0.00000
     15      23.4226      0.00000
     16      24.6624      0.00000
     17      24.6625      0.00000
     18      25.6438      0.00000
     19      29.7300      0.00000
     20      29.7302      0.00000
     21      32.1653      0.00000
     22      32.1653      0.00000
     23      33.9572      0.00000
     24      35.2242      0.00000
     25      35.9315      0.00000
     26      38.4811      0.00000
     27      38.4812      0.00000
     28      39.6177      0.00000
     29      39.6178      0.00000
     30      40.4947      0.00000
     31      40.4949      0.00000
     32      43.4583      0.00000
     33      43.4583      0.00000
     34      44.5816      0.00000
     35      45.6854      0.00000
     36      45.9705      0.00000
     37      47.1139      0.00000
     38      47.1140      0.00000
     39      49.4278      0.00000
     40      49.5602      0.00000
     41      49.5603      0.00000
     42      49.6589      0.00000
     43      50.3777      0.00000
     44      51.8662      0.00000
     45      51.8664      0.00000
     46      54.9754      0.00000
     47      54.9755      0.00000
     48      55.0440      0.00000
     49      55.1135      0.00000
     50      55.1135      0.00000
     51      57.6209      0.00000
     52      57.8764      0.00000
     53      60.2619      0.00000
     54      60.2619      0.00000
     55      61.9312      0.00000
     56      61.9312      0.00000
     57      62.5536      0.00000
     58      65.6063      0.00000
     59      67.0181      0.00000
     60      67.0182      0.00000
     61      68.6173      0.00000
     62      69.9778      0.00000
     63      70.9132      0.00000
     64      70.9136      0.00000

 k-point     3 :       0.4000   -0.0000   -0.0000
  band No.  band energies     occupation 
      1      -4.6002      2.00000
      2      -0.7914      2.00000
      3       4.3587      2.00000
      4       4.3587      2.00000
      5       7.1095      0.00000
      6       8.9089      0.00000
      7       8.9089      0.00000
      8      13.3289      0.00000
      9      14.5184      0.00000
     10      14.5184      0.00000
     11      15.5974      0.00000
     12      18.7582      0.00000
     13      18.7582      0.00000
     14      19.5142      0.00000
     15      22.5623      0.00000
     16      24.7199      0.00000
     17      24.7199      0.00000
     18      28.5175      0.00000
     19      29.3568      0.00000
     20      29.3675      0.00000
     21      29.3676      0.00000
     22      32.4011      0.00000
     23      32.4011      0.00000
     24      33.5259      0.00000
     25      33.5260      0.00000
     26      35.2815      0.00000
     27      36.2849      0.00000
     28      38.1865      0.00000
     29      38.1866      0.00000
     30      39.0269      0.00000
     31      39.0270      0.00000
     32      39.9347      0.00000
     33      42.5232      0.00000
     34      42.8886      0.00000
     35      46.5112      0.00000
     36      46.5112      0.00000
     37      47.8876      0.00000
     38      47.8877      0.00000
     39      48.5037      0.00000
     40      49.6600      0.00000
     41      50.1645      0.00000
     42      50.1647      0.00000
     43      53.3352      0.00000
     44      54.8452      0.00000
     45      54.8458      0.00000
     46      57.4549      0.00000
     47      57.4550      0.00000
     48      59.0441      0.00000
     49      59.8866      0.00000
     50      60.6786      0.00000
     51      60.6786      0.00000
     52      61.8950      0.00000
     53      61.8952      0.00000
     54      62.9251      0.00000
     55      62.9252      0.00000
     56      64.7567      0.00000
     57      65.6909      0.00000
     58      67.0629      0.00000
     59      67.1192      0.00000
     60      67.1193      0.00000
     61      67.5794      0.00000
     62      68.9469      0.00000
     63      68.9470      0.00000
     64      70.5518      0.00000

 k-point     4 :       0.2000    0.2000    0.0000
  band No.  band energies     occupation 
      1      -5.7848      2.00000
      2       2.8631      2.00000
      3       3.9963      2.00000
      4       3.9963      2.00000
      5       6.9476      0.00000
      6       9.3829      0.00000
      7      10.3912      0.00000
      8      10.3912      0.00000
      9      12.5995      0.00000
     10      14.0381      0.00000
     11      15.8900      0.00000
     12      17.9513      0.00000
     13      17.9513      0.00000
     14      18.5880      0.00000
     15      24.1941      0.00000
     16      24.1941      0.00000
     17      24.9924      0.00000
     18      25.3590      0.00000
     19      26.8875      0.00000
     20      29.8445      0.00000
     21      32.4225      0.00000
     22      32.9535      0.00000
     23      32.9536      0.00000
     24      36.5742      0.00000
     25      36.5742      0.00000
     26      36.8892      0.00000
     27      38.0605      0.00000
     28      39.3488      0.00000
     29      39.3488      0.00000
     30      39.4992      0.00000
     31      41.2419      0.00000
     32      43.3297      0.00000
     33      44.0715      0.00000
     34      44.0715      0.00000
     35      46.2032      0.00000
     36      46.5540      0.00000
     37      46.8822      0.00000
     38      46.8822      0.00000
     39      46.9517      0.00000
     40      49.7636      0.00000
     41      49.7636      0.00000
     42      50.8241      0.00000
     43      51.1625      0.00000
     44      52.7497      0.00000
     45      52.7497      0.00000
     46      53.3732      0.00000
     47      55.0394      0.00000
     48      55.1469      0.00000
     49      55.1469      0.00000
     50      55.3968      0.00000
     51      56.2261      0.00000
     52      59.0121      0.00000
     53      60.6583      0.00000
     54      60.6583      0.00000
     55      61.0355      0.00000
     56      63.6480      0.00000
     57      66.2588      0.00000
     58      66.2588      0.00000
     59      67.2130      0.00000
     60      67.6446      0.00000
     61      70.1188      0.00000
     62      70.1190      0.00000
     63      70.8138      0.00000
     64      72.6552      0.00000

 k-point     5 :       0.4000    0.2000   -0.0000
  band No.  band energies     occupation 
      1      -4.6431      2.00000
      2       0.1745      2.00000
      3       2.8586      2.00000
      4       3.4873      2.00000
      5       7.2640      0.00000
      6       9.5836      0.00000
      7      10.4336      0.00000
      8      10.9381      0.00000
      9      15.6647      0.00000
     10      15.9509      0.00000
     11      16.2712      0.00000
     12      18.3721      0.00000
     13      19.0017      0.00000
     14      20.7109      0.00000
     15      21.9519      0.00000
     16      23.5152      0.00000
     17      25.0478      0.00000
     18      25.5181      0.00000
     19      27.5014      0.00000
     20      29.2924      0.00000
     21      30.3151      0.00000
     22      31.5175      0.00000
     23      32.5860      0.00000
     24      33.4468      0.00000
     25      34.7214      0.00000
     26      36.1917      0.00000
     27      36.5106      0.00000
     28      36.8766      0.00000
     29      38.5126      0.00000
     30      40.2390      0.00000
     31      41.2337      0.00000
     32      42.0502      0.00000
     33      42.7556      0.00000
     34      42.7991      0.00000
     35      44.5985      0.00000
     36      45.6546      0.00000
     37      48.4590      0.00000
     38      48.9691      0.00000
     39      49.8307      0.00000
     40      50.0795      0.00000
     41      50.4600      0.00000
     42      50.9095      0.00000
     43      52.6502      0.00000
     44      52.9906      0.00000
     45      53.4527      0.00000
     46      54.1298      0.00000
     47      55.6191      0.00000
     48      57.6931      0.00000
     49      57.9498      0.00000
     50      59.5090      0.00000
     51      61.3316      0.00000
     52      62.3801      0.00000
     53      62.9653      0.00000
     54      63.9084      0.00000
     55      65.1308      0.00000
     56      66.2002      0.00000
     57      66.5340      0.00000
     58      66.7309      0.00000
     59      66.9612      0.00000
     60      68.3545      0.00000
     61      68.6709      0.00000
     62      69.5900      0.00000
     63      70.1278      0.00000
     64      70.6714      0.00000

 k-point     6 :      -0.4000    0.2000   -0.0000
  band No.  band energies     occupation 
      1      -3.7584      2.00000
      2      -1.2208      2.00000
      3       2.0486      2.00000
      4       3.7701      2.00000
      5       7.5474      0.00000
      6      10.1057      0.00000
      7      10.2993      0.00000
      8      13.0783      0.00000
      9      13.8861      0.00000
     10      13.9664      0.00000
     11      17.1159      0.00000
     12      19.6363      0.00000
     13      20.1655      0.00000
     14      20.7049      0.00000
     15      22.7630      0.00000
     16      25.2452      0.00000
     17      25.4879      0.00000
     18      25.8630      0.00000
     19      27.3374      0.00000
     20      27.4799      0.00000
     21      30.4686      0.00000
     22      31.5691      0.00000
     23      32.0688      0.00000
     24      32.0819      0.00000
     25      32.9857      0.00000
     26      34.2931      0.00000
     27      34.9823      0.00000
     28      37.0188      0.00000
     29      37.8557      0.00000
     30      39.5488      0.00000
     31      41.2667      0.00000
     32      41.5628      0.00000
     33      42.2887      0.00000
     34      42.3461      0.00000
     35      44.2636      0.00000
     36      46.6797      0.00000
     37      48.0291      0.00000
     38      48.5660      0.00000
     39      49.4333      0.00000
     40      51.1216      0.00000
     41      53.0240      0.00000
     42      53.7545      0.00000
     43      54.4438      0.00000
     44      54.8151      0.00000
     45      54.8325      0.00000
     46      55.4429      0.00000
     47      56.6527      0.00000
     48      58.5285      0.00000
     49      59.7080      0.00000
     50      60.1044      0.00000
     51      60.5360      0.00000
     52      62.0368      0.00000
     53      62.2081      0.00000
     54      62.5463      0.00000
     55      63.3722      0.00000
     56      64.0310      0.00000
     57      65.4838      0.00000
     58      66.8585      0.00000
     59      66.9615      0.00000
     60      68.3266      0.00000
     61      68.3995      0.00000
     62      69.5060      0.00000
     63      70.1200      0.00000
     64      71.9892      0.00000

 k-point     7 :      -0.2000    0.2000    0.0000
  band No.  band energies     occupation 
      1      -5.1310      2.00000
      2       1.0083      2.00000
      3       2.4810      2.00000
      4       4.6414      2.00000
      5       8.3840      0.00000
      6       9.4837      0.00000
      7       9.8148      0.00000
      8      11.2360      0.00000
      9      11.6333      0.00000
     10      16.2248      0.00000
     11      16.3213      0.00000
     12      17.4348      0.00000
     13      19.3564      0.00000
     14      20.4463      0.00000
     15      22.5962      0.00000
     16      23.9552      0.00000
     17      25.4918      0.00000
     18      25.9228      0.00000
     19      27.7168      0.00000
     20      27.9334      0.00000
     21      31.7086      0.00000
     22      32.2217      0.00000
     23      33.3283      0.00000
     24      34.2718      0.00000
     25      35.2363      0.00000
     26      35.4242      0.00000
     27      37.2666      0.00000
     28      38.7125      0.00000
     29      39.2844      0.00000
     30      40.0588      0.00000
     31      40.9799      0.00000
     32      41.4319      0.00000
     33      43.5337      0.00000
     34      43.7794      0.00000
     35      44.8286      0.00000
     36      45.1707      0.00000
     37      45.2240      0.00000
     38      46.4801      0.00000
     39      48.5808      0.00000
     40      50.3822      0.00000
     41      50.8259      0.00000
     42      51.0414      0.00000
     43      53.2212      0.00000
     44      53.8785      0.00000
     45      54.3681      0.00000
     46      55.0493      0.00000
     47      55.2066      0.00000
     48      56.5537      0.00000
     49      59.2418      0.00000
     50      59.6162      0.00000
     51      59.9659      0.00000
     52      61.4606      0.00000
     53      61.4787      0.00000
     54      62.0331      0.00000
     55      63.5965      0.00000
     56      63.8050      0.00000
     57      65.1061      0.00000
     58      66.7634      0.00000
     59      66.7667      0.00000
     60      66.7784      0.00000
     61      67.5194      0.00000
     62      69.3077      0.00000
     63      70.0397      0.00000
     64      70.3126      0.00000

 k-point     8 :       0.4000    0.4000    0.0000
  band No.  band energies     occupation 
      1      -3.7670      2.00000
      2      -0.6944      2.00000
      3       2.7873      2.00000
      4       2.7873      2.00000
      5       6.0680      0.00000
      6       6.8005      0.00000
      7      14.0276      0.00000
      8      14.0276      0.00000
      9      16.3561      0.00000
     10      16.7413      0.00000
     11      18.1697      0.00000
     12      18.1697      0.00000
     13      19.3086      0.00000
     14      20.1957      0.00000
     15      22.0800      0.00000
     16      22.8235      0.00000
     17      22.8235      0.00000
     18      24.4402      0.00000
     19      28.3072      0.00000
     20      28.8007      0.00000
     21      28.8007      0.00000
     22      29.6077      0.00000
     23      30.3026      0.00000
     24      32.7004      0.00000
     25      34.7896      0.00000
     26      34.7896      0.00000
     27      35.6554      0.00000
     28      40.3773      0.00000
     29      40.3774      0.00000
     30      40.9776      0.00000
     31      41.4895      0.00000
     32      41.9116      0.00000
     33      44.7595      0.00000
     34      45.3196      0.00000
     35      45.3197      0.00000
     36      45.8127      0.00000
     37      45.8128      0.00000
     38      46.4100      0.00000
     39      47.7054      0.00000
     40      48.2534      0.00000
     41      49.5045      0.00000
     42      49.5045      0.00000
     43      51.7956      0.00000
     44      55.1732      0.00000
     45      55.1733      0.00000
     46      56.2567      0.00000
     47      58.6785      0.00000
     48      60.0586      0.00000
     49      60.5538      0.00000
     50      61.5404      0.00000
     51      61.5404      0.00000
     52      61.6720      0.00000
     53      61.7372      0.00000
     54      62.8799      0.00000
     55      62.8799      0.00000
     56      65.0808      0.00000
     57      66.6422      0.00000
     58      66.6422      0.00000
     59      67.5079      0.00000
     60      69.4253      0.00000
     61      69.8520      0.00000
     62      70.6053      0.00000
     63      70.6054      0.00000
     64      71.6389      0.00000

 k-point     9 :      -0.4000    0.4000   -0.0000
  band No.  band energies     occupation 
      1      -2.5616      2.00000
      2      -1.9569      2.00000
      3       1.4150      2.00000
      4       2.9061      2.00000
      5       6.5173      0.00000
      6       8.6461      0.00000
      7      13.5977      0.00000
      8      14.1939      0.00000
      9      14.2256      0.00000
     10      14.6067      0.00000
     11      19.8499      0.00000
     12      19.9725      0.00000
     13      20.3112      0.00000
     14      21.3592      0.00000
     15      21.8674      0.00000
     16      22.4025      0.00000
     17      25.4577      0.00000
     18      26.4217      0.00000
     19      26.5036      0.00000
     20      26.5704      0.00000
     21      27.8834      0.00000
     22      29.0072      0.00000
     23      29.9479      0.00000
     24      30.8692      0.00000
     25      35.0498      0.00000
     26      35.8536      0.00000
     27      36.1329      0.00000
     28      37.2178      0.00000
     29      40.1503      0.00000
     30      40.4781      0.00000
     31      40.7878      0.00000
     32      41.2244      0.00000
     33      41.9744      0.00000
     34      43.6508      0.00000
     35      44.6382      0.00000
     36      46.2683      0.00000
     37      47.6656      0.00000
     38      48.6277      0.00000
     39      49.6861      0.00000
     40      49.9006      0.00000
     41      51.2743      0.00000
     42      52.0287      0.00000
     43      54.6430      0.00000
     44      55.1391      0.00000
     45      55.1825      0.00000
     46      57.7723      0.00000
     47      58.4310      0.00000
     48      58.4510      0.00000
     49      59.4952      0.00000
     50      60.3383      0.00000
     51      60.5407      0.00000
     52      60.6757      0.00000
     53      61.5100      0.00000
     54      61.9981      0.00000
     55      63.4717      0.00000
     56      64.6018      0.00000
     57      66.6099      0.00000
     58      68.0658      0.00000
     59      68.4290      0.00000
     60      68.8485      0.00000
     61      69.8387      0.00000
     62      69.8392      0.00000
     63      70.4968      0.00000
     64      71.4153      0.00000

 k-point    10 :      -0.4000    0.4000    0.2000
  band No.  band energies     occupation 
      1      -3.3276      2.00000
      2      -1.0785      2.00000
      3       1.5002      2.00000
      4       2.4887      2.00000
      5       8.8894      0.00000
      6       9.2688      0.00000
      7       9.9268      0.00000
      8      13.2976      0.00000
      9      13.9767      0.00000
     10      15.7286      0.00000
     11      18.8560      0.00000
     12      19.9630      0.00000
     13      20.0489      0.00000
     14      21.1986      0.00000
     15      22.0822      0.00000
     16      24.2834      0.00000
     17      25.4975      0.00000
     18      25.7483      0.00000
     19      26.2687      0.00000
     20      27.0118      0.00000
     21      28.8006      0.00000
     22      28.9999      0.00000
     23      31.5278      0.00000
     24      33.6206      0.00000
     25      34.4380      0.00000
     26      34.8764      0.00000
     27      35.5984      0.00000
     28      35.9079      0.00000
     29      37.3637      0.00000
     30      38.4236      0.00000
     31      40.5852      0.00000
     32      42.9527      0.00000
     33      43.1175      0.00000
     34      44.5527      0.00000
     35      46.4423      0.00000
     36      46.5342      0.00000
     37      48.5753      0.00000
     38      48.8432      0.00000
     39      49.4618      0.00000
     40      49.5504      0.00000
     41      50.9510      0.00000
     42      51.4823      0.00000
     43      53.4698      0.00000
     44      54.1911      0.00000
     45      55.5196      0.00000
     46      57.5944      0.00000
     47      57.9235      0.00000
     48      58.9696      0.00000
     49      59.2736      0.00000
     50      59.7410      0.00000
     51      59.7971      0.00000
     52      61.9375      0.00000
     53      62.8978      0.00000
     54      63.4733      0.00000
     55      63.6663      0.00000
     56      64.1061      0.00000
     57      65.7300      0.00000
     58      66.1190      0.00000
     59      67.6494      0.00000
     60      68.1562      0.00000
     61      69.4765      0.00000
     62      70.0854      0.00000
     63      70.5797      0.00000
     64      70.7186      0.00000


--------------------------------------------------------------------------------------------------------


 soft charge-density along one line, spin component           1
         0         1         2         3         4         5         6         7         8         9
 total charge-density along one line
 
 pseudopotential strength for first ion, spin component:           1
 17.059 -18.266  -0.000  -0.000  -0.000   0.000   0.000   0.000
-18.266  50.856   0.000   0.000   0.000  -0.000  -0.000  -0.000
 -0.000   0.000   3.851   0.000   0.000 -11.260  -0.000  -0.000
 -0.000   0.000   0.000   3.851   0.000  -0.000 -11.260  -0.000
 -0.000   0.000   0.000   0.000   3.851  -0.000  -0.000 -11.260
  0.000  -0.000 -11.260  -0.000  -0.000  35.874   0.000   0.000
  0.000  -0.000  -0.000 -11.260  -0.000   0.000  35.874   0.000
  0.000  -0.000  -0.000  -0.000 -11.260   0.000   0.000  35.874
  0.000   0.000  -0.000   0.002  -0.000   0.000  -0.004   0.000
  0.000   0.000  -0.000  -0.000   0.002   0.000   0.000  -0.004
 -0.000  -0.000  -0.000   0.000  -0.000   0.000  -0.000   0.000
  0.000   0.000   0.002  -0.000  -0.000  -0.004   0.000   0.000
 -0.000  -0.000  -0.000   0.000   0.000   0.000  -0.000  -0.000
 -0.000   0.000   0.000  -0.007   0.000  -0.000   0.017  -0.000
 -0.000   0.000   0.000   0.000  -0.007  -0.000  -0.000   0.017
  0.000  -0.000   0.000  -0.000   0.000  -0.000   0.000  -0.000
 -0.000   0.000  -0.007   0.000   0.000   0.017  -0.000  -0.000
  0.000  -0.000   0.000  -0.000  -0.000  -0.000   0.000   0.000
 total augmentation occupancy for first ion, spin component:           1
  1.558   0.018   0.000   0.000   0.000   0.000   0.000   0.000  -0.000   0.000   0.000   0.000   0.000  -0.000   0.000   0.000
  0.018   0.000  -0.000   0.000  -0.000  -0.000  -0.000  -0.000  -0.000   0.000   0.000   0.000   0.000  -0.000   0.000   0.000
  0.000  -0.000   1.214   0.000  -0.000   0.031   0.000  -0.000   0.000  -0.000  -0.000   0.139   0.000   0.000  -0.000  -0.000
  0.000  -0.000   0.000   1.214   0.000   0.000   0.031   0.000   0.139   0.000   0.000  -0.000  -0.000   0.003   0.000   0.000
  0.000  -0.000  -0.000   0.000   1.214  -0.000   0.000   0.031   0.000   0.139  -0.000  -0.000  -0.000   0.000   0.003  -0.000
  0.000  -0.000   0.031   0.000  -0.000   0.001  -0.000  -0.000   0.000  -0.000  -0.000   0.004   0.000   0.000  -0.000  -0.000
  0.000  -0.000   0.000   0.031   0.000  -0.000   0.001   0.000   0.004   0.000   0.000  -0.000  -0.000   0.000   0.000   0.000
  0.000  -0.000  -0.000   0.000   0.031  -0.000   0.000   0.001   0.000   0.004  -0.000  -0.000  -0.000   0.000   0.000  -0.000
 -0.000  -0.000   0.000   0.139   0.000   0.000   0.004   0.000   0.027   0.000   0.000   0.000  -0.000   0.001   0.000   0.000
  0.000   0.000  -0.000   0.000   0.139  -0.000   0.000   0.004   0.000   0.027  -0.000  -0.000  -0.000   0.000   0.001  -0.000
  0.000   0.000  -0.000   0.000  -0.000  -0.000   0.000  -0.000   0.000  -0.000   0.008   0.000   0.000   0.000  -0.000   0.000
  0.000   0.000   0.139  -0.000  -0.000   0.004  -0.000  -0.000   0.000  -0.000   0.000   0.027   0.000   0.000  -0.000   0.000
 -0.000   0.000   0.000  -0.000  -0.000   0.000  -0.000  -0.000  -0.000  -0.000   0.000   0.000   0.008  -0.000  -0.000   0.000
 -0.000  -0.000   0.000   0.003   0.000   0.000   0.000   0.000   0.001   0.000   0.000   0.000  -0.000   0.000   0.000   0.000
  0.000   0.000  -0.000   0.000   0.003  -0.000   0.000   0.000   0.000   0.001  -0.000  -0.000  -0.000   0.000   0.000  -0.000
  0.000   0.000  -0.000   0.000  -0.000  -0.000   0.000  -0.000   0.000  -0.000   0.000   0.000   0.000   0.000  -0.000   0.000
 -0.000   0.000   0.003  -0.000  -0.000   0.000  -0.000  -0.000   0.000  -0.000   0.000   0.001   0.000   0.000  -0.000   0.000
  0.000   0.000   0.000  -0.000  -0.000   0.000  -0.000  -0.000  -0.000  -0.000   0.000   0.000   0.000  -0.000  -0.000   0.000


------------------------ aborting loop because EDIFF is reached ----------------------------------------


    CHARGE:  cpu time      0.0014: real time      0.0014
    FORLOC:  cpu time      0.0001: real time      0.0001
    FORNL :  cpu time      0.0042: real time      0.0042
    STRESS:  cpu time      0.0150: real time      0.0150
    FORCOR:  cpu time      0.0013: real time      0.0014
    FORHAR:  cpu time      0.0003: real time      0.0003
    MIXING:  cpu time      0.0002: real time      0.0002
    OFIELD:  cpu time      0.0000: real time      0.0000

  FORCE on cell =-STRESS in cart. coord.  units (eV):
  Direction    XX          YY          ZZ          XY          YZ          ZX
  --------------------------------------------------------------------------------------
  Alpha Z     6.08881     6.08881     6.08881
  Ewald     -76.18788   -76.18788   -76.18788     0.00000     0.00000    -0.00000
  Hartree     5.01938     5.01938     5.01938     0.00000     0.00000     0.00000
  E(xc)     -25.20501   -25.20501   -25.20501    -0.00001    -0.00001    -0.00001
  Local     -26.64452   -26.64452   -26.64452    -0.00000    -0.00000    -0.00000
  n-local    73.53961    68.13879    73.04379    -0.96773     0.74282     2.35477
  augment   -11.01963   -11.01963   -11.01963    -0.00001    -0.00001    -0.00001
  Kinetic    57.14694    54.79235    58.73324    -0.99730     0.92645     3.73504
  Fock        0.00000     0.00000     0.00000     0.00000     0.00000     0.00000
  -------------------------------------------------------------------------------------
  Total       0.51606     0.51606     0.51606     0.00000     0.00000    -0.00000
  in kB      20.65703    20.65703    20.65703     0.00000     0.00000    -0.00000
  external pressure =       20.66 kB  Pullay stress =        0.00 kB


 VOLUME and BASIS-vectors are now :
 -----------------------------------------------------------------------------
  energy-cutoff  :      245.34
  volume of cell :       40.03
      direct lattice vectors                 reciprocal lattice vectors
     2.715000000  2.715000000  0.000000000     0.184162063  0.184162063 -0.184162063
     0.000000000  2.715000000  2.715000000    -0.184162063  0.184162063  0.184162063
     2.715000000  0.000000000  2.715000000     0.184162063 -0.184162063  0.184162063

  length of vectors
     3.839589822  3.839589822  3.839589822     0.318978049  0.318978049  0.318978049


 FORCES acting on ions
    electron-ion (+dipol)            ewald-force                    non-local-force                 convergence-correction
 -----------------------------------------------------------------------------------------------
   0.623E-05 0.656E-05 0.623E-05   -.326E-14 0.274E-14 0.141E-14   -.223E-16 0.127E-16 0.402E-16   -.894E-13 -.884E-13 -.877E-13
   -.623E-05 -.656E-05 -.623E-05   0.284E-14 -.258E-14 -.126E-14   0.251E-16 -.152E-16 -.443E-16   0.896E-13 0.882E-13 0.898E-13
 -----------------------------------------------------------------------------------------------
   0.260E-13 0.247E-13 0.214E-13   -.426E-15 0.164E-15 0.147E-15   0.281E-17 -.252E-17 -.413E-17   0.219E-15 -.222E-15 0.215E-14
 
 
 POSITION                                       TOTAL-FORCE (eV/Angst)
 -----------------------------------------------------------------------------------
      0.00000      0.00000      0.00000         0.000000      0.000000     -0.000000
      1.35750      1.35750      1.35750        -0.000000     -0.000000      0.000000
 -----------------------------------------------------------------------------------
    total drift:                                0.000000      0.000000      0.000000


--------------------------------------------------------------------------------------------------------



  FREE ENERGIE OF THE ION-ELECTRON SYSTEM (eV)
  ---------------------------------------------------
  free  energy   TOTEN  =       -10.76296253 eV

  energy  without entropy=      -10.76296253  energy(sigma->0) =      -10.76296253
 


--------------------------------------------------------------------------------------------------------


    POTLOK:  cpu time      0.0026: real time      0.0026


--------------------------------------------------------------------------------------------------------


 writing wavefunctions
     LOOP+:  cpu time      0.8599: real time      1.3160


--------------------------------------------------------------------------------------------------------



 plasma frequency squared (from intraband transitions) (eV^2)
  --------------------------------------------------------------------------------------
       0.000       0.000       0.000
       0.000       0.000       0.000
       0.000       0.000       0.000

 electrical conductivity sigma (Mega S m-1) (frequency dependency in vasprun.xml)
  --------------------------------------------------------------------------------------
       0.000       0.000       0.000
       0.000       0.000       0.000
       0.000       0.000       0.000

 plasma frequency squared (from interband transitions, int dw w eps(2)(w)) (eV^2)
  --------------------------------------------------------------------------------------
     241.926      -0.000       0.000      -0.000       0.000       0.000
       0.000      -0.000     241.926      -0.000      -0.000       0.000
       0.000       0.000      -0.000      -0.000     241.926      -0.000
  --------------------------------------------------------------------------------------
 sumrule: sum of plasma frequencies squared should yield (valence only):     275.596

 Anomalous Hall contribution (eV) 2/pi Imag((f_n-f_m)<u_m| d/dk_a u_n> <u_m| d/dk_b u_n>^*) 
  --------------------------------------------------------------------------------------
       0.000       0.000      -0.000
       0.000       0.000       0.000
       0.000       0.000       0.000

  frequency dependent IMAGINARY DIELECTRIC FUNCTION (independent particle, no local field effects) density-density
     E(ev)      X         Y         Z        XY        YZ        ZX
  --------------------------------------------------------------------------------------------------------------
    0.000000    0.000000    0.000000    0.000000    0.000000    0.000000    0.000000
    0.491538    0.091669    0.091669    0.091669   -0.000000   -0.000000    0.000000
    0.983076    0.213094    0.213094    0.213094   -0.000000   -0.000000    0.000000
    1.474615    0.428639    0.428639    0.428639   -0.000000   -0.000000    0.000000
    1.966153    1.004444    1.004444    1.004444   -0.000000   -0.000000    0.000000
    2.457691    6.314067    6.314067    6.314067    0.000000   -0.000000    0.000000
    2.949229   19.662025   19.662025   19.662025   -0.000000   -0.000000    0.000000
    3.440768   15.212963   15.212963   15.212963   -0.000000   -0.000000    0.000000
    3.932306   37.657411   37.657411   37.657411    0.000000   -0.000000    0.000000
    4.423844    8.945350    8.945350    8.945350    0.000000   -0.000000    0.000000
    4.915382    4.852876    4.852876    4.852876    0.000000   -0.000000    0.000000
    5.406921    4.880589    4.880589    4.880589    0.000000   -0.000000    0.000000
    5.898459    1.296716    1.296716    1.296716    0.000000   -0.000000    0.000000
    6.389997    6.896091    6.896091    6.896091    0.000000   -0.000000    0.000000
    6.881535    5.998425    5.998425    5.998425    0.000000   -0.000000    0.000000
    7.373074    9.703321    9.703321    9.703321    0.000000   -0.000000    0.000000
    7.864612    4.140178    4.140178    4.140178    0.000000   -0.000000    0.000000
    8.356150    1.586029    1.586029    1.586029    0.000000   -0.000000    0.000000
    8.847688    1.233886    1.233886    1.233886    0.000000   -0.000000    0.000000
    9.339226    0.831611    0.831611    0.831611    0.000000   -0.000000    0.000000
    9.830765    0.892262    0.892262    0.892262    0.000000   -0.000000    0.000000
   10.322303    0.890203    0.890203    0.890203    0.000000   -0.000000    0.000000
   10.813841    0.377628    0.377628    0.377628   -0.000000   -0.000000    0.000000
   11.305379    0.424405    0.424405    0.424405    0.000000   -0.000000    0.000000
   11.796918    0.591592    0.591592    0.591592    0.000000   -0.000000    0.000000
   12.288456    0.377862    0.377862    0.377862    0.000000   -0.000000    0.000000
   12.779994    0.419161    0.419161    0.419161   -0.000000   -0.000000    0.000000
   13.271532    0.326372    0.326372    0.326372   -0.000000   -0.000000    0.000000
   13.763071    0.434499    0.434499    0.434499    0.000000   -0.000000    0.000000
   14.254609    0.380104    0.380104    0.380104    0.000000   -0.000000    0.000000
   14.746147    0.232291    0.232291    0.232291    0.000000   -0.000000    0.000000
   15.237685    0.350642    0.350642    0.350642    0.000000   -0.000000    0.000000
   15.729223    0.131085    0.131085    0.131085    0.000000   -0.000000    0.000000
   16.220762    0.122401    0.122401    0.122401   -0.000000   -0.000000    0.000000
   16.712300    0.154539    0.154539    0.154539    0.000000   -0.000000    0.000000
   17.203838    0.120624    0.120624    0.120624   -0.000000   -0.000000    0.000000
   17.695376    0.097441    0.097441    0.097441    0.000000   -0.000000    0.000000
   18.186915    0.105889    0.105889    0.105889    0.000000   -0.000000    0.000000
   18.678453    0.064260    0.064260    0.064260    0.000000   -0.000000    0.000000
   19.169991    0.044994    0.044994    0.044994    0.000000   -0.000000    0.000000
   19.661529    0.093180    0.093180    0.093180    0.000000   -0.000000    0.000000
   20.153068    0.036259    0.036259    0.036259    0.000000   -0.000000    0.000000
   20.644606    0.061931    0.061931    0.061931   -0.000000   -0.000000    0.000000
   21.136144    0.057858    0.057858    0.057858    0.000000   -0.000000    0.000000
   21.627682    0.059978    0.059978    0.059978    0.000000   -0.000000    0.000000
   22.119221    0.109880    0.109880    0.109880    0.000000   -0.000000    0.000000
   22.610759    0.047848    0.047848    0.047848   -0.000000   -0.000000    0.000000
   23.102297    0.053976    0.053976    0.053976   -0.000000   -0.000000    0.000000
   23.593835    0.047408    0.047408    0.047408   -0.000000   -0.000000    0.000000
   24.085373    0.045916    0.045916    0.045916    0.000000   -0.000000    0.000000
   24.576912    0.025457    0.025457    0.025457   -0.000000   -0.000000    0.000000
   25.068450    0.023215    0.023215    0.023215    0.000000   -0.000000    0.000000
   25.559988    0.031786    0.031786    0.031786    0.000000   -0.000000    0.000000
   26.051526    0.010001    0.010001    0.010001    0.000000   -0.000000    0.000000
   26.543065    0.045977    0.045977    0.045977   -0.000000   -0.000000    0.000000
   27.034603    0.042563    0.042563    0.042563   -0.000000   -0.000000    0.000000
   27.526141    0.017643    0.017643    0.017643   -0.000000   -0.000000    0.000000
   28.017679    0.011342    0.011342    0.011342    0.000000   -0.000000    0.000000
   28.509218    0.018083    0.018083    0.018083    0.000000   -0.000000    0.000000
   29.000756    0.025158    0.025158    0.025158    0.000000   -0.000000    0.000000
   29.492294    0.027442    0.027442    0.027442    0.000000   -0.000000    0.000000
   29.983832    0.033347    0.033347    0.033347    0.000000   -0.000000    0.000000
   30.475370    0.014515    0.014515    0.014515   -0.000000   -0.000000    0.000000
   30.966909    0.016228    0.016228    0.016228   -0.000000   -0.000000    0.000000
   31.458447    0.017780    0.017780    0.017780   -0.000000   -0.000000    0.000000
   31.949985    0.017759    0.017759    0.017759    0.000000   -0.000000    0.000000
   32.441523    0.023775    0.023775    0.023775    0.000000   -0.000000    0.000000
   32.933062    0.022769    0.022769    0.022769    0.000000   -0.000000    0.000000
   33.424600    0.030841    0.030841    0.030841   -0.000000   -0.000000    0.000000
   33.916138    0.011971    0.011971    0.011971   -0.000000   -0.000000    0.000000
   34.407676    0.013416    0.013416    0.013416    0.000000   -0.000000    0.000000
   34.899215    0.022875    0.022875    0.022875    0.000000   -0.000000    0.000000
   35.390753    0.020943    0.020943    0.020943    0.000000   -0.000000    0.000000
   35.882291    0.015348    0.015348    0.015348   -0.000000   -0.000000    0.000000
   36.373829    0.007766    0.007766    0.007766   -0.000000   -0.000000    0.000000
   36.865368    0.015114    0.015114    0.015114   -0.000000   -0.000000    0.000000
   37.356906    0.013804    0.013804    0.013804   -0.000000   -0.000000    0.000000
   37.848444    0.017297    0.017297    0.017297   -0.000000   -0.000000    0.000000
   38.339982    0.021388    0.021388    0.021388   -0.000000   -0.000000    0.000000
   38.831520    0.024111    0.024111    0.024111   -0.000000   -0.000000    0.000000
   39.323059    0.031233    0.031233    0.031233    0.000000   -0.000000    0.000000
   39.814597    0.019337    0.019337    0.019337    0.000000   -0.000000    0.000000
   40.306135    0.012357    0.012357    0.012357    0.000000   -0.000000    0.000000
   40.797673    0.013868    0.013868    0.013868   -0.000000   -0.000000    0.000000
   41.289212    0.011123    0.011123    0.011123   -0.000000   -0.000000    0.000000
   41.780750    0.020719    0.020719    0.020719   -0.000000   -0.000000    0.000000
   42.272288    0.013630    0.013630    0.013630   -0.000000   -0.000000    0.000000
   42.763826    0.013650    0.013650    0.013650   -0.000000   -0.000000    0.000000
   43.255365    0.014058    0.014058    0.014058   -0.000000   -0.000000    0.000000
   43.746903    0.009058    0.009058    0.009058   -0.000000   -0.000000    0.000000
   44.238441    0.012270    0.012270    0.012270    0.000000   -0.000000    0.000000
   44.729979    0.006657    0.006657    0.006657    0.000000   -0.000000    0.000000
   45.221517    0.009629    0.009629    0.009629    0.000000   -0.000000    0.000000
   45.713056    0.011410    0.011410    0.011410    0.000000   -0.000000    0.000000
   46.204594    0.009863    0.009863    0.009863   -0.000000   -0.000000    0.000000
   46.696132    0.011262    0.011262    0.011262    0.000000   -0.000000    0.000000
   47.187670    0.015562    0.015562    0.015562    0.000000   -0.000000    0.000000
   47.679209    0.007802    0.007802    0.007802    0.000000   -0.000000    0.000000
   48.170747    0.007023    0.007023    0.007023    0.000000   -0.000000    0.000000
   48.662285    0.004230    0.004230    0.004230    0.000000   -0.000000    0.000000
   49.153823    0.013982    0.013982    0.013982    0.000000   -0.000000    0.000000
   49.645362    0.013147    0.013147    0.013147   -0.000000   -0.000000    0.000000
   50.136900    0.012575    0.012575    0.012575   -0.000000   -0.000000    0.000000
   50.628438    0.011778    0.011778    0.011778   -0.000000   -0.000000    0.000000
   51.119976    0.007085    0.007085    0.007085   -0.000000   -0.000000    0.000000
   51.611515    0.006299    0.006299    0.006299    0.000000   -0.000000    0.000000
[...]
   90.443035    0.000004    0.000004    0.000004   -0.000000   -0.000000    0.000000
   90.934573    0.000003    0.000003    0.000003   -0.000000   -0.000000    0.000000
   91.426111    0.000003    0.000003    0.000003   -0.000000   -0.000000    0.000000
   91.917650    0.000003    0.000003    0.000003   -0.000000   -0.000000    0.000000
   92.409188    0.000003    0.000003    0.000003   -0.000000   -0.000000    0.000000
   92.900726    0.000003    0.000003    0.000003   -0.000000   -0.000000    0.000000
   93.392264    0.000003    0.000003    0.000003   -0.000000   -0.000000    0.000000
   93.883803    0.000003    0.000003    0.000003   -0.000000   -0.000000    0.000000
   94.375341    0.000003    0.000003    0.000003   -0.000000   -0.000000    0.000000
   94.866879    0.000002    0.000002    0.000002   -0.000000   -0.000000    0.000000
   95.358417    0.000002    0.000002    0.000002   -0.000000   -0.000000    0.000000
   95.849956    0.000002    0.000002    0.000002   -0.000000   -0.000000    0.000000
   96.341494    0.000002    0.000002    0.000002   -0.000000   -0.000000    0.000000
   96.833032    0.000002    0.000002    0.000002   -0.000000   -0.000000    0.000000
   97.324570    0.000002    0.000002    0.000002   -0.000000   -0.000000    0.000000
   97.816108    0.000002    0.000002    0.000002   -0.000000   -0.000000    0.000000

  frequency dependent      REAL DIELECTRIC FUNCTION (independent particle, no local field effects) current-current
     E(ev)        X           Y           Z          XY          YZ          ZX
  --------------------------------------------------------------------------------------------------------------
    0.000000   12.366659   12.366659   12.366659   -0.000000   -0.000000    0.000000
    0.491538   12.582088   12.582088   12.582088   -0.000000   -0.000000    0.000000
    0.983076   13.301205   13.301205   13.301205   -0.000000   -0.000000    0.000000
    1.474615   14.790071   14.790071   14.790071   -0.000000   -0.000000    0.000000
    1.966153   17.932566   17.932566   17.932566   -0.000000   -0.000000    0.000000
    2.457691   27.023910   27.023910   27.023910   -0.000000   -0.000000    0.000000
    2.949229    7.572663    7.572663    7.572663    0.000000    0.000000   -0.000000
    3.440768   23.481648   23.481648   23.481648   -0.000000   -0.000000    0.000000
    3.932306  -28.360500  -28.360500  -28.360500    0.000000    0.000000   -0.000000
    4.423844   -7.236389   -7.236389   -7.236389    0.000000    0.000000   -0.000000
    4.915382   -9.386985   -9.386985   -9.386985    0.000000    0.000000   -0.000000
    5.406921   -4.398356   -4.398356   -4.398356    0.000000    0.000000   -0.000000
    5.898459   -0.671850   -0.671850   -0.671850    0.000000    0.000000   -0.000000
    6.389997    3.161295    3.161295    3.161295    0.000000   -0.000000    0.000000
    6.881535   -2.802180   -2.802180   -2.802180   -0.000000    0.000000   -0.000000
    7.373074    0.600203    0.600203    0.600203    0.000000   -0.000000    0.000000
    7.864612   -6.692350   -6.692350   -6.692350    0.000000    0.000000   -0.000000
    8.356150   -5.540777   -5.540777   -5.540777    0.000000    0.000000   -0.000000
    8.847688   -3.660190   -3.660190   -3.660190    0.000000    0.000000   -0.000000
    9.339226   -2.252632   -2.252632   -2.252632    0.000000    0.000000   -0.000000
    9.830765   -1.854890   -1.854890   -1.854890    0.000000    0.000000   -0.000000
   10.322303   -2.104127   -2.104127   -2.104127    0.000000    0.000000   -0.000000
   10.813841   -1.630255   -1.630255   -1.630255    0.000000    0.000000   -0.000000
   11.305379   -1.103988   -1.103988   -1.103988    0.000000    0.000000   -0.000000
   11.796918   -0.855748   -0.855748   -0.855748    0.000000    0.000000   -0.000000
   12.288456   -0.928887   -0.928887   -0.928887    0.000000    0.000000   -0.000000
   12.779994   -0.482917   -0.482917   -0.482917    0.000000    0.000000   -0.000000
   13.271532   -0.311142   -0.311142   -0.311142    0.000000    0.000000   -0.000000
   13.763071   -0.111898   -0.111898   -0.111898    0.000000    0.000000   -0.000000
   14.254609   -0.319179   -0.319179   -0.319179   -0.000000    0.000000   -0.000000
   14.746147   -0.142247   -0.142247   -0.142247    0.000000    0.000000   -0.000000
   15.237685   -0.253760   -0.253760   -0.253760    0.000000    0.000000   -0.000000
   15.729223   -0.087877   -0.087877   -0.087877    0.000000    0.000000   -0.000000
   16.220762    0.042279    0.042279    0.042279   -0.000000    0.000000   -0.000000
   16.712300    0.145056    0.145056    0.145056   -0.000000    0.000000   -0.000000
   17.203838    0.113474    0.113474    0.113474    0.000000    0.000000   -0.000000
   17.695376    0.200103    0.200103    0.200103    0.000000    0.000000   -0.000000
   18.186915    0.209622    0.209622    0.209622    0.000000    0.000000   -0.000000
   18.678453    0.265883    0.265883    0.265883   -0.000000    0.000000   -0.000000
   19.169991    0.320484    0.320484    0.320484    0.000000    0.000000   -0.000000
   19.661529    0.315639    0.315639    0.315639    0.000000    0.000000   -0.000000
   20.153068    0.405351    0.405351    0.405351    0.000000    0.000000   -0.000000
   20.644606    0.440268    0.440268    0.440268    0.000000    0.000000   -0.000000
   21.136144    0.467803    0.467803    0.467803    0.000000    0.000000   -0.000000
   21.627682    0.494505    0.494505    0.494505    0.000000    0.000000   -0.000000
   22.119221    0.505664    0.505664    0.505664    0.000000    0.000000   -0.000000
   22.610759    0.486144    0.486144    0.486144    0.000000    0.000000   -0.000000
   23.102297    0.545290    0.545290    0.545290    0.000000    0.000000   -0.000000
   23.593835    0.534577    0.534577    0.534577    0.000000    0.000000   -0.000000
   24.085373    0.534527    0.534527    0.534527    0.000000    0.000000   -0.000000
   24.576912    0.573292    0.573292    0.573292    0.000000    0.000000   -0.000000
   25.068450    0.604941    0.604941    0.604941    0.000000    0.000000   -0.000000
   25.559988    0.603755    0.603755    0.603755    0.000000    0.000000   -0.000000
   26.051526    0.646142    0.646142    0.646142    0.000000    0.000000   -0.000000
   26.543065    0.671125    0.671125    0.671125    0.000000    0.000000   -0.000000
   27.034603    0.665903    0.665903    0.665903    0.000000    0.000000   -0.000000
   27.526141    0.663450    0.663450    0.663450    0.000000    0.000000   -0.000000
   28.017679    0.700173    0.700173    0.700173    0.000000    0.000000   -0.000000
   28.509218    0.703332    0.703332    0.703332    0.000000    0.000000   -0.000000
   29.000756    0.731995    0.731995    0.731995    0.000000    0.000000   -0.000000
   29.492294    0.738008    0.738008    0.738008    0.000000    0.000000   -0.000000
   29.983832    0.730752    0.730752    0.730752    0.000000    0.000000   -0.000000
   30.475370    0.734435    0.734435    0.734435    0.000000    0.000000   -0.000000
   30.966909    0.746848    0.746848    0.746848    0.000000    0.000000   -0.000000
   31.458447    0.762036    0.762036    0.762036    0.000000    0.000000   -0.000000
   31.949985    0.775390    0.775390    0.775390    0.000000    0.000000   -0.000000
   32.441523    0.780367    0.780367    0.780367    0.000000    0.000000   -0.000000
   32.933062    0.783526    0.783526    0.783526    0.000000    0.000000   -0.000000
   33.424600    0.777004    0.777004    0.777004    0.000000    0.000000   -0.000000
   33.916138    0.787405    0.787405    0.787405    0.000000    0.000000   -0.000000
   34.407676    0.798611    0.798611    0.798611    0.000000    0.000000   -0.000000
   34.899215    0.804090    0.804090    0.804090    0.000000    0.000000   -0.000000
   35.390753    0.812041    0.812041    0.812041    0.000000    0.000000   -0.000000
   35.882291    0.811793    0.811793    0.811793    0.000000    0.000000   -0.000000
   36.373829    0.822372    0.822372    0.822372    0.000000    0.000000   -0.000000
   36.865368    0.832460    0.832460    0.832460    0.000000    0.000000   -0.000000
   37.356906    0.838184    0.838184    0.838184    0.000000    0.000000   -0.000000
   37.848444    0.842452    0.842452    0.842452    0.000000    0.000000   -0.000000
   38.339982    0.843136    0.843136    0.843136    0.000000    0.000000   -0.000000
   38.831520    0.834502    0.834502    0.834502    0.000000    0.000000   -0.000000
   39.323059    0.836601    0.836601    0.836601    0.000000    0.000000   -0.000000
   39.814597    0.850945    0.850945    0.850945    0.000000    0.000000   -0.000000
   40.306135    0.846738    0.846738    0.846738    0.000000    0.000000   -0.000000
   40.797673    0.853287    0.853287    0.853287    0.000000    0.000000   -0.000000
   41.289212    0.854140    0.854140    0.854140    0.000000    0.000000   -0.000000
   41.780750    0.858398    0.858398    0.858398    0.000000    0.000000   -0.000000
   42.272288    0.861031    0.861031    0.861031    0.000000    0.000000   -0.000000
   42.763826    0.869244    0.869244    0.869244    0.000000    0.000000   -0.000000
   43.255365    0.865252    0.865252    0.865252    0.000000    0.000000   -0.000000
   43.746903    0.877129    0.877129    0.877129    0.000000    0.000000   -0.000000
   44.238441    0.870658    0.870658    0.870658    0.000000    0.000000   -0.000000
   44.729979    0.880698    0.880698    0.880698    0.000000    0.000000   -0.000000
   45.221517    0.884566    0.884566    0.884566    0.000000    0.000000   -0.000000
   45.713056    0.880030    0.880030    0.880030    0.000000    0.000000   -0.000000
   46.204594    0.888139    0.888139    0.888139    0.000000    0.000000   -0.000000
   46.696132    0.888758    0.888758    0.888758    0.000000    0.000000   -0.000000
   47.187670    0.887086    0.887086    0.887086    0.000000    0.000000   -0.000000
   47.679209    0.890611    0.890611    0.890611    0.000000    0.000000   -0.000000
   48.170747    0.889044    0.889044    0.889044    0.000000    0.000000   -0.000000
   48.662285    0.899843    0.899843    0.899843    0.000000    0.000000   -0.000000
   49.153823    0.902697    0.902697    0.902697    0.000000    0.000000   -0.000000
   49.645362    0.902264    0.902264    0.902264    0.000000    0.000000   -0.000000
   50.136900    0.900686    0.900686    0.900686    0.000000    0.000000   -0.000000
   50.628438    0.897101    0.897101    0.897101    0.000000    0.000000   -0.000000
   51.119976    0.900015    0.900015    0.900015    0.000000    0.000000   -0.000000
   51.611515    0.908568    0.908568    0.908568    0.000000    0.000000   -0.000000
   52.103053    0.912123    0.912123    0.912123    0.000000    0.000000   -0.000000
   52.594591    0.911608    0.911608    0.911608    0.000000    0.000000   -0.000000
   53.086129    0.911141    0.911141    0.911141    0.000000    0.000000   -0.000000
   53.577667    0.911970    0.911970    0.911970    0.000000    0.000000   -0.000000
   54.069206    0.915258    0.915258    0.915258    0.000000    0.000000   -0.000000
   54.560744    0.918354    0.918354    0.918354    0.000000    0.000000   -0.000000
   55.052282    0.916292    0.916292    0.916292    0.000000    0.000000   -0.000000
   55.543820    0.919271    0.919271    0.919271    0.000000    0.000000   -0.000000
   56.035359    0.921371    0.921371    0.921371    0.000000    0.000000   -0.000000
   56.526897    0.925135    0.925135    0.925135    0.000000    0.000000   -0.000000
   57.018435    0.922454    0.922454    0.922454    0.000000    0.000000   -0.000000
   57.509973    0.928074    0.928074    0.928074    0.000000    0.000000   -0.000000
   58.001512    0.927583    0.927583    0.927583    0.000000    0.000000   -0.000000
   58.493050    0.928282    0.928282    0.928282    0.000000    0.000000   -0.000000
   58.984588    0.928871    0.928871    0.928871    0.000000    0.000000   -0.000000
   59.476126    0.932143    0.932143    0.932143    0.000000    0.000000   -0.000000
   59.967664    0.938616    0.938616    0.938616    0.000000    0.000000   -0.000000
   60.459203    0.928739    0.928739    0.928739    0.000000    0.000000   -0.000000
   60.950741    0.937118    0.937118    0.937118    0.000000    0.000000   -0.000000
   61.442279    0.929328    0.929328    0.929328    0.000000    0.000000   -0.000000
   61.933817    0.936561    0.936561    0.936561    0.000000    0.000000   -0.000000
   62.425356    0.934406    0.934406    0.934406    0.000000    0.000000   -0.000000
   62.916894    0.936446    0.936446    0.936446    0.000000    0.000000   -0.000000
   63.408432    0.936068    0.936068    0.936068    0.000000    0.000000   -0.000000
   63.899970    0.934953    0.934953    0.934953    0.000000    0.000000   -0.000000
   64.391509    0.936388    0.936388    0.936388    0.000000    0.000000   -0.000000
   64.883047    0.936956    0.936956    0.936956    0.000000    0.000000   -0.000000
   65.374585    0.939235    0.939235    0.939235    0.000000    0.000000   -0.000000
   65.866123    0.941393    0.941393    0.941393    0.000000    0.000000   -0.000000
   66.357662    0.938551    0.938551    0.938551    0.000000    0.000000   -0.000000
   66.849200    0.939840    0.939840    0.939840    0.000000    0.000000   -0.000000
   67.340738    0.938521    0.938521    0.938521    0.000000    0.000000   -0.000000
   67.832276    0.942426    0.942426    0.942426    0.000000    0.000000   -0.000000
   68.323814    0.943573    0.943573    0.943573    0.000000    0.000000   -0.000000
   68.815353    0.942490    0.942490    0.942490    0.000000    0.000000   -0.000000
   69.306891    0.944728    0.944728    0.944728    0.000000    0.000000   -0.000000
   69.798429    0.944663    0.944663    0.944663    0.000000    0.000000   -0.000000
   70.289967    0.946897    0.946897    0.946897    0.000000    0.000000   -0.000000
   70.781506    0.947175    0.947175    0.947175    0.000000    0.000000   -0.000000
   71.273044    0.948380    0.948380    0.948380    0.000000    0.000000   -0.000000
   71.764582    0.948077    0.948077    0.948077    0.000000    0.000000   -0.000000
   72.256120    0.948317    0.948317    0.948317    0.000000    0.000000   -0.000000
   72.747659    0.950443    0.950443    0.950443    0.000000    0.000000   -0.000000
   73.239197    0.950992    0.950992    0.950992    0.000000    0.000000   -0.000000
   73.730735    0.951416    0.951416    0.951416    0.000000    0.000000   -0.000000
   74.222273    0.952302    0.952302    0.952302    0.000000    0.000000   -0.000000
   74.713811    0.953237    0.953237    0.953237    0.000000    0.000000   -0.000000
   75.205350    0.954552    0.954552    0.954552    0.000000    0.000000   -0.000000
   75.696888    0.954475    0.954475    0.954475    0.000000    0.000000   -0.000000
   76.188426    0.955090    0.955090    0.955090    0.000000    0.000000   -0.000000
   76.679964    0.955958    0.955958    0.955958    0.000000    0.000000   -0.000000
   77.171503    0.956627    0.956627    0.956627    0.000000    0.000000   -0.000000
   77.663041    0.957313    0.957313    0.957313    0.000000    0.000000   -0.000000
   78.154579    0.957956    0.957956    0.957956    0.000000    0.000000   -0.000000
   78.646117    0.958571    0.958571    0.958571    0.000000    0.000000   -0.000000
   79.137656    0.959165    0.959165    0.959165    0.000000    0.000000   -0.000000
   79.629194    0.959739    0.959739    0.959739    0.000000    0.000000   -0.000000
   80.120732    0.960297    0.960297    0.960297    0.000000    0.000000   -0.000000
   80.612270    0.960840    0.960840    0.960840    0.000000    0.000000   -0.000000
   81.103809    0.961369    0.961369    0.961369    0.000000    0.000000   -0.000000
   81.595347    0.961890    0.961890    0.961890    0.000000    0.000000   -0.000000
   82.086885    0.962367    0.962367    0.962367    0.000000    0.000000   -0.000000
   82.578423    0.962866    0.962866    0.962866    0.000000    0.000000   -0.000000
   83.069961    0.963346    0.963346    0.963346    0.000000    0.000000   -0.000000
   83.561500    0.963815    0.963815    0.963815    0.000000    0.000000   -0.000000
   84.053038    0.964273    0.964273    0.964273    0.000000    0.000000   -0.000000
   84.544576    0.964721    0.964721    0.964721    0.000000    0.000000   -0.000000
   85.036114    0.965159    0.965159    0.965159    0.000000    0.000000   -0.000000
   85.527653    0.965588    0.965588    0.965588    0.000000    0.000000   -0.000000
   86.019191    0.966009    0.966009    0.966009    0.000000    0.000000   -0.000000
   86.510729    0.966421    0.966421    0.966421    0.000000    0.000000   -0.000000
   87.002267    0.966824    0.966824    0.966824    0.000000    0.000000   -0.000000
   87.493806    0.967220    0.967220    0.967220    0.000000    0.000000   -0.000000
   87.985344    0.967608    0.967608    0.967608    0.000000    0.000000   -0.000000
   88.476882    0.967989    0.967989    0.967989    0.000000    0.000000   -0.000000
   88.968420    0.968362    0.968362    0.968362    0.000000    0.000000   -0.000000
   89.459958    0.968729    0.968729    0.968729    0.000000    0.000000   -0.000000
   89.951497    0.969088    0.969088    0.969088    0.000000    0.000000   -0.000000
   90.443035    0.969441    0.969441    0.969441    0.000000    0.000000   -0.000000
   90.934573    0.969788    0.969788    0.969788    0.000000    0.000000   -0.000000
   91.426111    0.970129    0.970129    0.970129    0.000000    0.000000   -0.000000
   91.917650    0.970463    0.970463    0.970463    0.000000    0.000000   -0.000000
   92.409188    0.970791    0.970791    0.970791    0.000000    0.000000   -0.000000
   92.900726    0.971114    0.971114    0.971114    0.000000    0.000000   -0.000000
   93.392264    0.971431    0.971431    0.971431    0.000000    0.000000   -0.000000
   93.883803    0.971743    0.971743    0.971743    0.000000    0.000000   -0.000000
   94.375341    0.972050    0.972050    0.972050    0.000000    0.000000   -0.000000
   94.866879    0.972351    0.972351    0.972351    0.000000    0.000000   -0.000000
   95.358417    0.972647    0.972647    0.972647    0.000000    0.000000   -0.000000
   95.849956    0.972938    0.972938    0.972938    0.000000    0.000000   -0.000000
   96.341494    0.973225    0.973225    0.973225    0.000000    0.000000   -0.000000
   96.833032    0.973506    0.973506    0.973506    0.000000    0.000000   -0.000000
   97.324570    0.973784    0.973784    0.973784    0.000000    0.000000   -0.000000
   97.816108    0.974056    0.974056    0.974056    0.000000    0.000000   -0.000000
 
 The outermost node in the dielectric function lies at epsilon=  16.1


--------------------------------------------------------------------------------------------------------


    OPTICS:  cpu time      0.4921: real time      1.6214
    4ORBIT:  cpu time      0.0000: real time      0.0000

 total amount of memory used by VASP MPI-rank0    31604. kBytes
=======================================================================

   base      :      30000. kBytes
   nonl-proj :        529. kBytes
   fftplans  :        160. kBytes
   grid      :        372. kBytes
   one-center:         31. kBytes
   wavefun   :        512. kBytes
 
  
  
 General timing and accounting informations for this job:
 ========================================================
  
                  Total CPU time used (sec):        1.714
                            User time (sec):        1.506
                          System time (sec):        0.208
                         Elapsed time (sec):        5.238
  
                   Maximum memory used (kb):      141844.
                   Average memory used (kb):          N/A
  
                          Minor page faults:        10461
                          Major page faults:         5175
                 Voluntary context switches:         1537
