<?xml version="1.0" encoding="ISO-8859-1"?>
<modeling>
 <generator>
  <i name="program" type="string">vasp </i>
  <i name="version" type="string">6.3.2  </i>
  <i name="subversion" type="string">27Jun22 (build Dec 02 2024 22:47:12) complex                          parallel </i>
  <i name="platform" type="string">LinuxIFC </i>
  <i name="date" type="string">2024 12 19 </i>
  <i name="time" type="string">22:03:57 </i>
 </generator>
 <incar>
  <i type="string" name="SYSTEM">DFT Virtual Orbitals for Silicon</i>
  <i type="string" name="ALGO">Exact</i>
  <i name="EDIFF">      0.00000001</i>
  <i type="int" name="NBANDS">    64</i>
  <i type="int" name="NEDOS">  2000</i>
  <i type="int" name="ISMEAR">     0</i>
  <i name="SIGMA">      0.05000000</i>
  <i type="logical" name="LOPTICS"> T  </i>
  <i name="CSHIFT">      0.10000000</i>
  <i type="logical" name="LPEAD"> T  </i>
 </incar>
 <primitive_cell>
  <structure name="primitive_cell" >
   <crystal>
    <varray name="basis" >
     <v>       2.71500000       2.71500000       0.00000000 </v>
     <v>       0.00000000       2.71500000       2.71500000 </v>
     <v>       2.71500000       0.00000000       2.71500000 </v>
    </varray>
    <i name="volume">     40.02575175 </i>
    <varray name="rec_basis" >
     <v>       0.18416206       0.18416206      -0.18416206 </v>
     <v>      -0.18416206       0.18416206       0.18416206 </v>
     <v>       0.18416206      -0.18416206       0.18416206 </v>
    </varray>
   </crystal>
   <varray name="positions" >
    <v>       0.00000000       0.00000000       0.00000000 </v>
    <v>       0.25000000       0.25000000       0.25000000 </v>
   </varray>
  </structure>
  <varray name="primitive_index" >
   <v type="int" >        1 </v>
   <v type="int" >        2 </v>
  </varray>
 </primitive_cell>
 <kpoints>
  <generation param="Gamma">
   <v type="int" name="divisions">       5        5        5 </v>
   <v name="usershift">      0.00000000       0.00000000       0.00000000 </v>
   <v name="genvec1">      0.20000000       0.00000000       0.00000000 </v>
   <v name="genvec2">      0.00000000       0.20000000      -0.00000000 </v>
   <v name="genvec3">     -0.00000000      -0.00000000       0.20000000 </v>
   <v name="shift">      0.00000000       0.00000000       0.00000000 </v>
  </generation>
  <varray name="kpointlist" >
   <v>       0.00000000       0.00000000       0.00000000 </v>
   <v>       0.20000000       0.00000000      -0.00000000 </v>
   <v>       0.40000000      -0.00000000      -0.00000000 </v>
   <v>       0.20000000       0.20000000       0.00000000 </v>
   <v>       0.40000000       0.20000000      -0.00000000 </v>
   <v>      -0.40000000       0.20000000      -0.00000000 </v>
   <v>      -0.20000000       0.20000000       0.00000000 </v>
   <v>       0.40000000       0.40000000       0.00000000 </v>
   <v>      -0.40000000       0.40000000      -0.00000000 </v>
   <v>      -0.40000000       0.40000000       0.20000000 </v>
  </varray>
  <varray name="weights" >
   <v>       0.00800000 </v>
   <v>       0.06400000 </v>
   <v>       0.06400000 </v>
   <v>       0.04800000 </v>
   <v>       0.19200000 </v>
   <v>       0.19200000 </v>
   <v>       0.09600000 </v>
   <v>       0.04800000 </v>
   <v>       0.09600000 </v>
   <v>       0.19200000 </v>
  </varray>
 </kpoints>
 <parameters>
  <separator name="general" >
   <i type="string" name="SYSTEM">DFT Virtual Orbitals for Silicon</i>
   <i type="logical" name="LCOMPAT"> F  </i>
  </separator>
  <separator name="electronic" >
   <i type="string" name="PREC">normal</i>
   <i name="ENMAX">    245.34500000</i>
   <i name="ENAUG">    412.95200000</i>
   <i name="EDIFF">      0.00000001</i>
   <i type="int" name="IALGO">    90</i>
   <i type="int" name="IWAVPR">    10</i>
   <i type="int" name="NBANDS">    64</i>
   <i type="int" name="NBANDSLOW">    -1</i>
   <i type="int" name="NBANDSHIGH">    -1</i>
   <i name="NELECT">      8.00000000</i>
   <i type="int" name="TURBO">     0</i>
   <i type="int" name="IRESTART">     0</i>
   <i type="int" name="NREBOOT">     0</i>
   <i type="int" name="NMIN">     0</i>
   <i name="EREF">      0.00000000</i>
   <separator name="electronic smearing" >
    <i type="int" name="ISMEAR">     0</i>
    <i name="SIGMA">      0.05000000</i>
    <i name="KSPACING">      0.50000000</i>
    <i type="logical" name="KGAMMA"> T  </i>
    <i type="logical" name="KBLOWUP"> T  </i>
   </separator>
   <separator name="electronic projectors" >
    <i type="logical" name="LREAL"> F  </i>
    <v name="ROPT">      0.00000000</v>
    <i type="int" name="LMAXPAW">  -100</i>
    <i type="int" name="LMAXMIX">     2</i>
    <i type="logical" name="NLSPLINE"> F  </i>
   </separator>
   <separator name="electronic startup" >
    <i type="int" name="ISTART">     1</i>
    <i type="int" name="ICHARG">     0</i>
    <i type="int" name="INIWAV">     1</i>
   </separator>
   <separator name="electronic spin" >
    <i type="int" name="ISPIN">     1</i>
    <i type="logical" name="LNONCOLLINEAR"> F  </i>
    <v name="MAGMOM">      1.00000000      1.00000000</v>
    <i name="NUPDOWN">     -1.00000000</i>
    <i type="logical" name="LSORBIT"> F  </i>
    <v name="SAXIS">      0.00000000      0.00000000      1.00000000</v>
    <i type="logical" name="LSPIRAL"> F  </i>
    <v name="QSPIRAL">      0.00000000      0.00000000      0.00000000</v>
    <i type="logical" name="LZEROZ"> F  </i>
   </separator>
   <separator name="electronic exchange-correlation" >
    <i type="logical" name="LASPH"> F  </i>
    <i type="logical" name="LMETAGGA"> F  </i>
   </separator>
   <separator name="electronic convergence" >
    <i type="int" name="NELM">    60</i>
    <i type="int" name="NELMDL">     0</i>
    <i type="int" name="NELMIN">     2</i>
    <i name="ENINI">    245.34500000</i>
    <separator name="electronic convergence detail" >
     <i type="logical" name="LDIAG"> T  </i>
     <i type="logical" name="LSUBROT"> F  </i>
     <i name="WEIMIN">      0.00000000</i>
     <i name="EBREAK">      0.00000000</i>
     <i name="DEPER">      0.30000000</i>
     <i type="int" name="NRMM">     4</i>
     <i name="TIME">      0.40000000</i>
    </separator>
   </separator>
   <separator name="electronic mixer" >
    <i name="AMIX">      0.40000000</i>
    <i name="BMIX">      1.00000000</i>
    <i name="AMIN">      0.10000000</i>
    <i name="AMIX_MAG">      1.60000000</i>
    <i name="BMIX_MAG">      1.00000000</i>
    <separator name="electronic mixer details" >
     <i type="int" name="IMIX">     4</i>
     <i type="logical" name="MIXFIRST"> F  </i>
     <i type="int" name="MAXMIX">   -45</i>
     <i name="WC">    100.00000000</i>
     <i type="int" name="INIMIX">     1</i>
     <i type="int" name="MIXPRE">     1</i>
     <i type="int" name="MREMOVE">     5</i>
    </separator>
   </separator>
   <separator name="electronic dipolcorrection" >
    <i type="logical" name="LDIPOL"> F  </i>
    <i type="logical" name="LMONO"> F  </i>
    <i type="int" name="IDIPOL">     0</i>
    <i name="EPSILON">      1.00000000</i>
    <v name="DIPOL">   -100.00000000   -100.00000000   -100.00000000</v>
    <i name="EFIELD">      0.00000000</i>
   </separator>
  </separator>
  <separator name="grids" >
   <i type="int" name="NGX">    16</i>
   <i type="int" name="NGY">    16</i>
   <i type="int" name="NGZ">    16</i>
   <i type="int" name="NGXF">    32</i>
   <i type="int" name="NGYF">    32</i>
   <i type="int" name="NGZF">    32</i>
   <i type="logical" name="ADDGRID"> F  </i>
  </separator>
  <separator name="ionic" >
   <i type="int" name="NSW">     0</i>
   <i type="int" name="IBRION">    -1</i>
   <i type="int" name="MDALGO">     0</i>
   <i type="int" name="ISIF">     2</i>
   <i name="PSTRESS">      0.00000000</i>
   <i name="EDIFFG">      0.00000010</i>
   <i type="int" name="NFREE">     0</i>
   <i name="POTIM">      0.50000000</i>
   <i name="SMASS">     -3.00000000</i>
   <i name="SCALEE">      1.00000000</i>
  </separator>
  <separator name="ionic md" >
   <i name="TEBEG">      0.00010000</i>
   <i name="TEEND">      0.00010000</i>
   <i type="int" name="NBLOCK">     1</i>
   <i type="int" name="KBLOCK">     1</i>
   <i type="int" name="NPACO">   256</i>
   <i name="APACO">     10.00000000</i>
  </separator>
  <separator name="symmetry" >
   <i type="int" name="ISYM">     2</i>
   <i name="SYMPREC">      0.00001000</i>
  </separator>
  <separator name="dos" >
   <i type="int" name="LORBIT">     0</i>
   <v name="RWIGS">     -1.00000000</v>
   <i type="int" name="NEDOS">  2000</i>
   <i name="EMIN">     10.00000000</i>
   <i name="EMAX">    -10.00000000</i>
   <i name="EFERMI">      0.00000000</i>
  </separator>
  <separator name="writing" >
   <i type="int" name="NWRITE">     2</i>
   <i type="logical" name="LWAVE"> T  </i>
   <i type="logical" name="LDOWNSAMPLE"> F  </i>
   <i type="logical" name="LCHARG"> T  </i>
   <i type="logical" name="LPARD"> F  </i>
   <i type="logical" name="LVTOT"> F  </i>
   <i type="logical" name="LVHAR"> F  </i>
   <i type="logical" name="LELF"> F  </i>
   <i type="logical" name="LOPTICS"> T  </i>
   <v name="STM">      0.00000000      0.00000000      0.00000000      0.00000000      0.00000000      0.00000000      0.00000000</v>
  </separator>
  <separator name="performance" >
   <i type="int" name="NPAR">     8</i>
   <i type="int" name="NSIM">     4</i>
   <i type="int" name="NBLK">    -1</i>
   <i type="logical" name="LPLANE"> T  </i>
   <i type="logical" name="LSCALAPACK"> T  </i>
   <i type="logical" name="LSCAAWARE"> T  </i>
   <i type="logical" name="LSCALU"> F  </i>
   <i type="logical" name="LASYNC"> F  </i>
   <i type="logical" name="LORBITALREAL"> F  </i>
  </separator>
  <separator name="miscellaneous" >
   <i type="int" name="IDIOT">     3</i>
   <i type="int" name="PHON_NSTRUCT">    -1</i>
   <i type="logical" name="LMUSIC"> F  </i>
   <v name="POMASS">     28.08500000</v>
   <v name="DARWINR">      0.00000000</v>
   <v name="DARWINV">      1.00000000</v>
   <i type="logical" name="LCORR"> T  </i>
  </separator>
  <i type="logical" name="GGA_COMPAT"> T  </i>
  <i type="logical" name="LBERRY"> F  </i>
  <i type="int" name="ICORELEVEL">     0</i>
  <i type="logical" name="LDAU"> F  </i>
  <i type="int" name="I_CONSTRAINED_M">     0</i>
  <separator name="electronic exchange-correlation" >
   <i type="string" name="GGA">--</i>
   <i type="int" name="VOSKOWN">     0</i>
   <i type="logical" name="LHFCALC"> F  </i>
   <i type="string" name="PRECFOCK"></i>
   <i type="logical" name="LSYMGRAD"> F  </i>
   <i type="logical" name="LHFONE"> F  </i>
   <i type="logical" name="LRHFCALC"> F  </i>
   <i type="logical" name="LTHOMAS"> F  </i>
   <i type="logical" name="LMODELHF"> F  </i>
   <i type="logical" name="LFOCKACE"> F  </i>
   <i name="ENCUT4O">     -1.00000000</i>
   <i type="int" name="EXXOEP">     0</i>
   <i type="int" name="FOURORBIT">     0</i>
   <i name="AEXX">      0.00000000</i>
   <i name="HFALPHA">      0.00000000</i>
   <i name="MCALPHA">      0.00000000</i>
   <i name="ALDAX">      1.00000000</i>
   <i name="AGGAX">      1.00000000</i>
   <i name="ALDAC">      1.00000000</i>
   <i name="AGGAC">      1.00000000</i>
   <i type="int" name="NKREDX">     1</i>
   <i type="int" name="NKREDY">     1</i>
   <i type="int" name="NKREDZ">     1</i>
   <i type="logical" name="SHIFTRED"> F  </i>
   <i type="logical" name="ODDONLY"> F  </i>
   <i type="logical" name="EVENONLY"> F  </i>
   <i type="int" name="LMAXFOCK">     0</i>
   <i type="int" name="NMAXFOCKAE">     0</i>
   <i type="logical" name="LFOCKAEDFT"> F  </i>
   <i name="HFSCREEN">      0.00000000</i>
   <i name="HFSCREENC">      0.00000000</i>
   <i type="int" name="NBANDSGWLOW">     0</i>
  </separator>
  <separator name="vdW DFT" >
   <i type="logical" name="LUSE_VDW"> F  </i>
   <i name="Zab_VDW">     -0.84910000</i>
   <i name="PARAM1">      0.12340000</i>
   <i name="PARAM2">      1.00000000</i>
   <i name="PARAM3">      0.00000000</i>
  </separator>
  <separator name="model GW" >
   <i type="int" name="MODEL_GW">     0</i>
   <i name="MODEL_EPS0">     12.00772552</i>
   <i name="MODEL_ALPHA">      1.00000000</i>
  </separator>
  <separator name="linear response parameters" >
   <i type="logical" name="LEPSILON"> F  </i>
   <i type="logical" name="LRPA"> F  </i>
   <i type="logical" name="LNABLA"> F  </i>
   <i type="logical" name="LVEL"> F  </i>
   <i name="CSHIFT">      0.10000000</i>
   <i name="OMEGAMAX">     -1.00000000</i>
   <i name="DEG_THRESHOLD">      0.00200000</i>
   <i name="RTIME">     -0.10000000</i>
   <i name="WPLASMAI">      0.00000000</i>
   <v name="DFIELD">      0.00000000      0.00000000      0.00000000</v>
   <v name="WPLASMA">      0.00000000      0.00000000      0.00000000      0.00000000      0.00000000      0.00000000      0.00000000      0.00000000      0.00000000</v>
  </separator>
  <separator name="orbital magnetization" >
   <i type="logical" name="NUCIND"> F  </i>
   <v name="MAGPOS">      0.00000000      0.00000000      0.00000000</v>
   <i type="logical" name="LNICSALL"> T  </i>
   <i type="logical" name="ORBITALMAG"> F  </i>
   <i type="logical" name="LMAGBLOCH"> F  </i>
   <i type="logical" name="LCHIMAG"> F  </i>
   <i type="logical" name="LGAUGE"> T  </i>
   <i type="int" name="MAGATOM">     0</i>
   <v name="MAGDIPOL">      0.00000000      0.00000000      0.00000000</v>
   <v name="AVECCONST">      0.00000000      0.00000000      0.00000000</v>
  </separator>
  <separator name="response functions" >
   <i type="logical" name="LFINITE_TEMPERATURE"> F  </i>
   <i type="logical" name="LADDER"> F  </i>
   <i type="logical" name="LRPAFORCE"> F  </i>
   <i type="logical" name="LFXC"> F  </i>
   <i type="logical" name="LHARTREE"> T  </i>
   <i type="int" name="IBSE">     0</i>
   <v type="int" name="KPOINT">    -1     0     0     0</v>
   <i type="logical" name="LTCTC"> F  </i>
   <i type="logical" name="LTCTE"> F  </i>
   <i type="logical" name="LTETE"> F  </i>
   <i type="logical" name="LTRIPLET"> F  </i>
   <i type="logical" name="LFXCEPS"> F  </i>
   <i type="logical" name="LFXHEG"> F  </i>
   <i type="int" name="NATURALO">     2</i>
   <i type="logical" name="LHOLEGF"> F  </i>
   <i type="logical" name="L2ORDER"> F  </i>
   <i type="logical" name="LDMP1"> F  </i>
   <i type="logical" name="LMP2LT"> F  </i>
   <i type="logical" name="LSMP2LT"> F  </i>
   <i type="logical" name="LGWLF"> F  </i>
   <i name="ENCUTGW">     -2.00000000</i>
   <i name="ENCUTGWSOFT">     -2.00000000</i>
   <i name="ENCUTLF">     -1.00000000</i>
   <i type="logical" name="LESF_SPLINES"> F  </i>
   <i type="int" name="LMAXMP2">    -1</i>
   <i name="SCISSOR">      0.00000000</i>
   <i type="int" name="NOMEGA">     0</i>
   <i type="int" name="NOMEGAR">     0</i>
   <i type="int" name="NBANDSGW">    -1</i>
   <i type="int" name="NBANDSO">    -1</i>
   <i type="int" name="NBANDSV">    -1</i>
   <i type="int" name="NELMGW">     1</i>
   <i type="int" name="NELMHF">     1</i>
   <i type="int" name="DIM">     3</i>
   <i type="int" name="IESPILON">     4</i>
   <i type="int" name="ANTIRES">     0</i>
   <i name="OMEGAMAX">    -30.00000000</i>
   <i name="OMEGAMIN">    -30.00000000</i>
   <i name="OMEGATL">   -200.00000000</i>
   <i type="int" name="OMEGAGRID">     0</i>
   <i name="CSHIFT">      0.10000000</i>
   <i type="logical" name="LSELFENERGY"> F  </i>
   <i type="logical" name="LSPECTRAL"> F  </i>
   <i type="logical" name="LSPECTRALGW"> F  </i>
   <i type="logical" name="LSINGLES"> F  </i>
   <i type="logical" name="LFERMIGW"> F  </i>
   <i type="logical" name="ODDONLYGW"> F  </i>
   <i type="logical" name="EVENONLYGW"> F  </i>
   <i type="int" name="NKREDLFX">     1</i>
   <i type="int" name="NKREDLFY">     1</i>
   <i type="int" name="NKREDLFZ">     1</i>
   <i type="int" name="MAXMEM">  2800</i>
   <i type="int" name="TELESCOPE">     0</i>
   <i type="int" name="NTAUPAR">    -1</i>
   <i type="int" name="NOMEGAPAR">    -1</i>
   <i name="DAMP_NEWTON">      0.80000001</i>
   <i name="LAMBDA">      1.00000000</i>
  </separator>
  <separator name="External order field" >
   <i name="OFIELD_KAPPA">      0.00000000</i>
   <v name="OFIELD_K">      0.00000000      0.00000000      0.00000000</v>
   <i name="OFIELD_Q6_NEAR">      0.00000000</i>
   <i name="OFIELD_Q6_FAR">      0.00000000</i>
   <i name="OFIELD_A">      0.00000000</i>
  </separator>
  <separator name="optional k-points parameters" >
   <i type="int" name="KPOINTS_OPT_MODE">     1</i>
   <i type="logical" name="LKPOINTS_OPT"> F  </i>
  </separator>
 </parameters>
 <atominfo>
  <atoms>       2 </atoms>
  <types>       1 </types>
  <array name="atoms" >
   <dimension dim="1">ion</dimension>
   <field type="string">element</field>
   <field type="int">atomtype</field>
   <set>
    <rc><c>Si</c><c>   1</c></rc>
    <rc><c>Si</c><c>   1</c></rc>
   </set>
  </array>
  <array name="atomtypes" >
   <dimension dim="1">type</dimension>
   <field type="int">atomspertype</field>
   <field type="string">element</field>
   <field>mass</field>
   <field>valence</field>
   <field type="string">pseudopotential</field>
   <set>
    <rc><c>   2</c><c>Si</c><c>     28.08500000</c><c>      4.00000000</c><c>  PAW_PBE Si_GW 04May2012               </c></rc>
   </set>
  </array>
 </atominfo>
 <structure name="initialpos" >
  <crystal>
   <varray name="basis" >
    <v>       2.71500000       2.71500000       0.00000000 </v>
    <v>       0.00000000       2.71500000       2.71500000 </v>
    <v>       2.71500000       0.00000000       2.71500000 </v>
   </varray>
   <i name="volume">     40.02575175 </i>
   <varray name="rec_basis" >
    <v>       0.18416206       0.18416206      -0.18416206 </v>
    <v>      -0.18416206       0.18416206       0.18416206 </v>
    <v>       0.18416206      -0.18416206       0.18416206 </v>
   </varray>
  </crystal>
  <varray name="positions" >
   <v>       0.00000000       0.00000000       0.00000000 </v>
   <v>       0.25000000       0.25000000       0.25000000 </v>
  </varray>
 </structure>
 <calculation>
  <scstep>
   <time name="diag">    0.41    0.41</time>
   <time name="total">    0.41    0.45</time>
   <energy>
    <i name="alphaZ">      6.08881246 </i>
    <i name="ewald">   -228.56352493 </i>
    <i name="hartreedc">    -15.05814193 </i>
    <i name="XCdc">    -18.19465901 </i>
    <i name="pawpsdc">    264.85060328 </i>
    <i name="pawaedc">   -229.41914005 </i>
    <i name="eentropy">     -0.00000000 </i>
    <i name="bandstr">      3.41051533 </i>
    <i name="atom">    206.12257231 </i>
    <i name="e_fr_energy">    -10.76296253 </i>
    <i name="e_wo_entrp">    -10.76296253 </i>
    <i name="e_0_energy">    -10.76296253 </i>
   </energy>
  </scstep>
  <scstep>
   <time name="diag">    0.38    0.38</time>
   <time name="total">    0.38    0.39</time>
   <energy>
    <i name="alphaZ">      6.08881246 </i>
    <i name="ewald">   -228.56352493 </i>
    <i name="hartreedc">    -15.05814188 </i>
    <i name="XCdc">    -18.19465901 </i>
    <i name="pawpsdc">    264.85060285 </i>
    <i name="pawaedc">   -229.41913962 </i>
    <i name="eentropy">     -0.00000000 </i>
    <i name="bandstr">      3.41051528 </i>
    <i name="atom">    206.12257231 </i>
    <i name="e_fr_energy">    -10.76296253 </i>
    <i name="e_wo_entrp">    -10.76296253 </i>
    <i name="e_0_energy">    -10.76296253 </i>
   </energy>
  </scstep>
  <structure>
   <crystal>
    <varray name="basis" >
     <v>       2.71500000       2.71500000       0.00000000 </v>
     <v>       0.00000000       2.71500000       2.71500000 </v>
     <v>       2.71500000       0.00000000       2.71500000 </v>
    </varray>
    <i name="volume">     40.02575175 </i>
    <varray name="rec_basis" >
     <v>       0.18416206       0.18416206      -0.18416206 </v>
     <v>      -0.18416206       0.18416206       0.18416206 </v>
     <v>       0.18416206      -0.18416206       0.18416206 </v>
    </varray>
   </crystal>
   <varray name="positions" >
    <v>       0.00000000       0.00000000       0.00000000 </v>
    <v>       0.25000000       0.25000000       0.25000000 </v>
   </varray>
  </structure>
  <varray name="forces" >
   <v>       0.00000000       0.00000000      -0.00000000 </v>
   <v>      -0.00000000      -0.00000000       0.00000000 </v>
  </varray>
  <varray name="stress" >
   <v>      20.65702552      -0.00000000      -0.00000000 </v>
   <v>       0.00000000      20.65702552       0.00000000 </v>
   <v>      -0.00000000       0.00000000      20.65702552 </v>
  </varray>
  <energy>
   <i name="e_fr_energy">    -10.76296253 </i>
   <i name="e_wo_entrp">    -10.76296253 </i>
   <i name="e_0_energy">    -10.76296253 </i>
  </energy>
  <time name="totalsc">    0.86    1.32</time>
  <eigenvalues>
   <array>
    <dimension dim="1">band</dimension>
    <dimension dim="2">kpoint</dimension>
    <dimension dim="3">spin</dimension>
    <field>eigene</field>
    <field>occ</field>
    <set>
     <set comment="spin 1">
      <set comment="kpoint 1">
       <r>   -6.4802    1.0000 </r>
       <r>    5.4906    1.0000 </r>
       <r>    5.4906    1.0000 </r>
       <r>    5.4906    1.0000 </r>
       <r>    8.0505    0.0000 </r>
       <r>    8.0505    0.0000 </r>
       <r>    8.0505    0.0000 </r>
       <r>    8.8522    0.0000 </r>
       <r>   13.2626    0.0000 </r>
       <r>   13.2626    0.0000 </r>
       <r>   13.4422    0.0000 </r>
       <r>   16.7548    0.0000 </r>
       <r>   16.7548    0.0000 </r>
       <r>   16.7548    0.0000 </r>
       <r>   20.8924    0.0000 </r>
       <r>   28.8233    0.0000 </r>
       <r>   28.8233    0.0000 </r>
       <r>   28.8233    0.0000 </r>
       <r>   29.9969    0.0000 </r>
       <r>   29.9969    0.0000 </r>
       <r>   31.3897    0.0000 </r>
       <r>   31.3897    0.0000 </r>
       <r>   31.3897    0.0000 </r>
       <r>   34.7592    0.0000 </r>
       <r>   34.7592    0.0000 </r>
       <r>   34.7593    0.0000 </r>
       <r>   40.8047    0.0000 </r>
       <r>   40.8049    0.0000 </r>
       <r>   40.8049    0.0000 </r>
       <r>   43.8873    0.0000 </r>
       <r>   44.6608    0.0000 </r>
       <r>   44.6608    0.0000 </r>
       <r>   46.3310    0.0000 </r>
       <r>   46.3310    0.0000 </r>
       <r>   47.8691    0.0000 </r>
       <r>   47.8691    0.0000 </r>
       <r>   47.8691    0.0000 </r>
       <r>   49.5411    0.0000 </r>
       <r>   49.5412    0.0000 </r>
       <r>   49.5412    0.0000 </r>
       <r>   50.1620    0.0000 </r>
       <r>   50.5560    0.0000 </r>
       <r>   50.5560    0.0000 </r>
       <r>   50.5560    0.0000 </r>
       <r>   50.5953    0.0000 </r>
       <r>   50.5953    0.0000 </r>
       <r>   50.5953    0.0000 </r>
       <r>   51.9425    0.0000 </r>
       <r>   51.9425    0.0000 </r>
       <r>   51.9426    0.0000 </r>
       <r>   55.9766    0.0000 </r>
       <r>   57.1748    0.0000 </r>
       <r>   57.1748    0.0000 </r>
       <r>   57.1748    0.0000 </r>
       <r>   57.3883    0.0000 </r>
       <r>   57.3883    0.0000 </r>
       <r>   57.3883    0.0000 </r>
       <r>   62.5653    0.0000 </r>
       <r>   63.5856    0.0000 </r>
       <r>   72.3783    0.0000 </r>
       <r>   72.3783    0.0000 </r>
       <r>   75.4017    0.0000 </r>
       <r>   75.4018    0.0000 </r>
       <r>   75.4018    0.0000 </r>
      </set>
      <set comment="kpoint 2">
       <r>   -5.9628    1.0000 </r>
       <r>    2.4756    1.0000 </r>
       <r>    4.9083    1.0000 </r>
       <r>    4.9083    1.0000 </r>
       <r>    7.7092    0.0000 </r>
       <r>    8.8547    0.0000 </r>
       <r>    8.8547    0.0000 </r>
       <r>   11.5449    0.0000 </r>
       <r>   12.5787    0.0000 </r>
       <r>   12.5787    0.0000 </r>
       <r>   14.6388    0.0000 </r>
       <r>   16.4552    0.0000 </r>
       <r>   19.2866    0.0000 </r>
       <r>   19.2866    0.0000 </r>
       <r>   23.4226    0.0000 </r>
       <r>   24.6624    0.0000 </r>
       <r>   24.6625    0.0000 </r>
       <r>   25.6438    0.0000 </r>
       <r>   29.7300    0.0000 </r>
       <r>   29.7302    0.0000 </r>
       <r>   32.1653    0.0000 </r>
       <r>   32.1653    0.0000 </r>
       <r>   33.9572    0.0000 </r>
       <r>   35.2242    0.0000 </r>
       <r>   35.9315    0.0000 </r>
       <r>   38.4811    0.0000 </r>
       <r>   38.4812    0.0000 </r>
       <r>   39.6177    0.0000 </r>
       <r>   39.6178    0.0000 </r>
       <r>   40.4947    0.0000 </r>
       <r>   40.4949    0.0000 </r>
       <r>   43.4583    0.0000 </r>
       <r>   43.4583    0.0000 </r>
       <r>   44.5816    0.0000 </r>
       <r>   45.6854    0.0000 </r>
       <r>   45.9705    0.0000 </r>
       <r>   47.1139    0.0000 </r>
       <r>   47.1140    0.0000 </r>
       <r>   49.4278    0.0000 </r>
       <r>   49.5602    0.0000 </r>
       <r>   49.5603    0.0000 </r>
       <r>   49.6589    0.0000 </r>
       <r>   50.3777    0.0000 </r>
       <r>   51.8662    0.0000 </r>
       <r>   51.8664    0.0000 </r>
       <r>   54.9754    0.0000 </r>
       <r>   54.9755    0.0000 </r>
       <r>   55.0440    0.0000 </r>
       <r>   55.1135    0.0000 </r>
       <r>   55.1135    0.0000 </r>
       <r>   57.6209    0.0000 </r>
       <r>   57.8764    0.0000 </r>
       <r>   60.2619    0.0000 </r>
       <r>   60.2619    0.0000 </r>
       <r>   61.9312    0.0000 </r>
       <r>   61.9312    0.0000 </r>
       <r>   62.5536    0.0000 </r>
       <r>   65.6063    0.0000 </r>
       <r>   67.0181    0.0000 </r>
       <r>   67.0182    0.0000 </r>
       <r>   68.6173    0.0000 </r>
       <r>   69.9778    0.0000 </r>
       <r>   70.9132    0.0000 </r>
       <r>   70.9136    0.0000 </r>
      </set>
      <set comment="kpoint 3">
       <r>   -4.6002    1.0000 </r>
       <r>   -0.7914    1.0000 </r>
       <r>    4.3587    1.0000 </r>
       <r>    4.3587    1.0000 </r>
       <r>    7.1095    0.0000 </r>
       <r>    8.9089    0.0000 </r>
       <r>    8.9089    0.0000 </r>
       <r>   13.3289    0.0000 </r>
       <r>   14.5184    0.0000 </r>
       <r>   14.5184    0.0000 </r>
       <r>   15.5974    0.0000 </r>
       <r>   18.7582    0.0000 </r>
       <r>   18.7582    0.0000 </r>
       <r>   19.5142    0.0000 </r>
       <r>   22.5623    0.0000 </r>
       <r>   24.7199    0.0000 </r>
       <r>   24.7199    0.0000 </r>
       <r>   28.5175    0.0000 </r>
       <r>   29.3568    0.0000 </r>
       <r>   29.3675    0.0000 </r>
       <r>   29.3676    0.0000 </r>
       <r>   32.4011    0.0000 </r>
       <r>   32.4011    0.0000 </r>
       <r>   33.5259    0.0000 </r>
       <r>   33.5260    0.0000 </r>
       <r>   35.2815    0.0000 </r>
       <r>   36.2849    0.0000 </r>
       <r>   38.1865    0.0000 </r>
       <r>   38.1866    0.0000 </r>
       <r>   39.0269    0.0000 </r>
       <r>   39.0270    0.0000 </r>
       <r>   39.9347    0.0000 </r>
       <r>   42.5232    0.0000 </r>
       <r>   42.8886    0.0000 </r>
       <r>   46.5112    0.0000 </r>
       <r>   46.5112    0.0000 </r>
       <r>   47.8876    0.0000 </r>
       <r>   47.8877    0.0000 </r>
       <r>   48.5037    0.0000 </r>
       <r>   49.6600    0.0000 </r>
       <r>   50.1645    0.0000 </r>
       <r>   50.1647    0.0000 </r>
       <r>   53.3352    0.0000 </r>
       <r>   54.8452    0.0000 </r>
       <r>   54.8458    0.0000 </r>
       <r>   57.4549    0.0000 </r>
       <r>   57.4550    0.0000 </r>
       <r>   59.0441    0.0000 </r>
       <r>   59.8866    0.0000 </r>
       <r>   60.6786    0.0000 </r>
       <r>   60.6786    0.0000 </r>
       <r>   61.8950    0.0000 </r>
       <r>   61.8952    0.0000 </r>
       <r>   62.9251    0.0000 </r>
       <r>   62.9252    0.0000 </r>
       <r>   64.7567    0.0000 </r>
       <r>   65.6909    0.0000 </r>
       <r>   67.0629    0.0000 </r>
       <r>   67.1192    0.0000 </r>
       <r>   67.1193    0.0000 </r>
       <r>   67.5794    0.0000 </r>
       <r>   68.9469    0.0000 </r>
       <r>   68.9470    0.0000 </r>
       <r>   70.5518    0.0000 </r>
      </set>
      <set comment="kpoint 4">
       <r>   -5.7848    1.0000 </r>
       <r>    2.8631    1.0000 </r>
       <r>    3.9963    1.0000 </r>
       <r>    3.9963    1.0000 </r>
       <r>    6.9476    0.0000 </r>
       <r>    9.3829    0.0000 </r>
       <r>   10.3912    0.0000 </r>
       <r>   10.3912    0.0000 </r>
       <r>   12.5995    0.0000 </r>
       <r>   14.0381    0.0000 </r>
       <r>   15.8900    0.0000 </r>
       <r>   17.9513    0.0000 </r>
       <r>   17.9513    0.0000 </r>
       <r>   18.5880    0.0000 </r>
       <r>   24.1941    0.0000 </r>
       <r>   24.1941    0.0000 </r>
       <r>   24.9924    0.0000 </r>
       <r>   25.3590    0.0000 </r>
       <r>   26.8875    0.0000 </r>
       <r>   29.8445    0.0000 </r>
       <r>   32.4225    0.0000 </r>
       <r>   32.9535    0.0000 </r>
       <r>   32.9536    0.0000 </r>
       <r>   36.5742    0.0000 </r>
       <r>   36.5742    0.0000 </r>
       <r>   36.8892    0.0000 </r>
       <r>   38.0605    0.0000 </r>
       <r>   39.3488    0.0000 </r>
       <r>   39.3488    0.0000 </r>
       <r>   39.4992    0.0000 </r>
       <r>   41.2419    0.0000 </r>
       <r>   43.3297    0.0000 </r>
       <r>   44.0715    0.0000 </r>
       <r>   44.0715    0.0000 </r>
       <r>   46.2032    0.0000 </r>
       <r>   46.5540    0.0000 </r>
       <r>   46.8822    0.0000 </r>
       <r>   46.8822    0.0000 </r>
       <r>   46.9517    0.0000 </r>
       <r>   49.7636    0.0000 </r>
       <r>   49.7636    0.0000 </r>
       <r>   50.8241    0.0000 </r>
       <r>   51.1625    0.0000 </r>
       <r>   52.7497    0.0000 </r>
       <r>   52.7497    0.0000 </r>
       <r>   53.3732    0.0000 </r>
       <r>   55.0394    0.0000 </r>
       <r>   55.1469    0.0000 </r>
       <r>   55.1469    0.0000 </r>
       <r>   55.3968    0.0000 </r>
       <r>   56.2261    0.0000 </r>
       <r>   59.0121    0.0000 </r>
       <r>   60.6583    0.0000 </r>
       <r>   60.6583    0.0000 </r>
       <r>   61.0355    0.0000 </r>
       <r>   63.6480    0.0000 </r>
       <r>   66.2588    0.0000 </r>
       <r>   66.2588    0.0000 </r>
       <r>   67.2130    0.0000 </r>
       <r>   67.6446    0.0000 </r>
       <r>   70.1188    0.0000 </r>
       <r>   70.1190    0.0000 </r>
       <r>   70.8138    0.0000 </r>
       <r>   72.6552    0.0000 </r>
      </set>
      <set comment="kpoint 5">
       <r>   -4.6431    1.0000 </r>
       <r>    0.1745    1.0000 </r>
       <r>    2.8586    1.0000 </r>
       <r>    3.4873    1.0000 </r>
       <r>    7.2640    0.0000 </r>
       <r>    9.5836    0.0000 </r>
       <r>   10.4336    0.0000 </r>
       <r>   10.9381    0.0000 </r>
       <r>   15.6647    0.0000 </r>
       <r>   15.9509    0.0000 </r>
       <r>   16.2712    0.0000 </r>
       <r>   18.3721    0.0000 </r>
       <r>   19.0017    0.0000 </r>
       <r>   20.7109    0.0000 </r>
       <r>   21.9519    0.0000 </r>
       <r>   23.5152    0.0000 </r>
       <r>   25.0478    0.0000 </r>
       <r>   25.5181    0.0000 </r>
       <r>   27.5014    0.0000 </r>
       <r>   29.2924    0.0000 </r>
       <r>   30.3151    0.0000 </r>
       <r>   31.5175    0.0000 </r>
       <r>   32.5860    0.0000 </r>
       <r>   33.4468    0.0000 </r>
       <r>   34.7214    0.0000 </r>
       <r>   36.1917    0.0000 </r>
       <r>   36.5106    0.0000 </r>
       <r>   36.8766    0.0000 </r>
       <r>   38.5126    0.0000 </r>
       <r>   40.2390    0.0000 </r>
       <r>   41.2337    0.0000 </r>
       <r>   42.0502    0.0000 </r>
       <r>   42.7556    0.0000 </r>
       <r>   42.7991    0.0000 </r>
       <r>   44.5985    0.0000 </r>
       <r>   45.6546    0.0000 </r>
       <r>   48.4590    0.0000 </r>
       <r>   48.9691    0.0000 </r>
       <r>   49.8307    0.0000 </r>
       <r>   50.0795    0.0000 </r>
       <r>   50.4600    0.0000 </r>
       <r>   50.9095    0.0000 </r>
       <r>   52.6502    0.0000 </r>
       <r>   52.9906    0.0000 </r>
       <r>   53.4527    0.0000 </r>
       <r>   54.1298    0.0000 </r>
       <r>   55.6191    0.0000 </r>
       <r>   57.6931    0.0000 </r>
       <r>   57.9498    0.0000 </r>
       <r>   59.5090    0.0000 </r>
       <r>   61.3316    0.0000 </r>
       <r>   62.3801    0.0000 </r>
       <r>   62.9653    0.0000 </r>
       <r>   63.9084    0.0000 </r>
       <r>   65.1308    0.0000 </r>
       <r>   66.2002    0.0000 </r>
       <r>   66.5340    0.0000 </r>
       <r>   66.7309    0.0000 </r>
       <r>   66.9612    0.0000 </r>
       <r>   68.3545    0.0000 </r>
       <r>   68.6709    0.0000 </r>
       <r>   69.5900    0.0000 </r>
       <r>   70.1278    0.0000 </r>
       <r>   70.6714    0.0000 </r>
      </set>
      <set comment="kpoint 6">
       <r>   -3.7584    1.0000 </r>
       <r>   -1.2208    1.0000 </r>
       <r>    2.0486    1.0000 </r>
       <r>    3.7701    1.0000 </r>
       <r>    7.5474    0.0000 </r>
       <r>   10.1057    0.0000 </r>
       <r>   10.2993    0.0000 </r>
       <r>   13.0783    0.0000 </r>
       <r>   13.8861    0.0000 </r>
       <r>   13.9664    0.0000 </r>
       <r>   17.1159    0.0000 </r>
       <r>   19.6363    0.0000 </r>
       <r>   20.1655    0.0000 </r>
       <r>   20.7049    0.0000 </r>
       <r>   22.7630    0.0000 </r>
       <r>   25.2452    0.0000 </r>
       <r>   25.4879    0.0000 </r>
       <r>   25.8630    0.0000 </r>
       <r>   27.3374    0.0000 </r>
       <r>   27.4799    0.0000 </r>
       <r>   30.4686    0.0000 </r>
       <r>   31.5691    0.0000 </r>
       <r>   32.0688    0.0000 </r>
       <r>   32.0819    0.0000 </r>
       <r>   32.9857    0.0000 </r>
       <r>   34.2931    0.0000 </r>
       <r>   34.9823    0.0000 </r>
       <r>   37.0188    0.0000 </r>
       <r>   37.8557    0.0000 </r>
       <r>   39.5488    0.0000 </r>
       <r>   41.2667    0.0000 </r>
       <r>   41.5628    0.0000 </r>
       <r>   42.2887    0.0000 </r>
       <r>   42.3461    0.0000 </r>
       <r>   44.2636    0.0000 </r>
       <r>   46.6797    0.0000 </r>
       <r>   48.0291    0.0000 </r>
       <r>   48.5660    0.0000 </r>
       <r>   49.4333    0.0000 </r>
       <r>   51.1216    0.0000 </r>
       <r>   53.0240    0.0000 </r>
       <r>   53.7545    0.0000 </r>
       <r>   54.4438    0.0000 </r>
       <r>   54.8151    0.0000 </r>
       <r>   54.8325    0.0000 </r>
       <r>   55.4429    0.0000 </r>
       <r>   56.6527    0.0000 </r>
       <r>   58.5285    0.0000 </r>
       <r>   59.7080    0.0000 </r>
       <r>   60.1044    0.0000 </r>
       <r>   60.5360    0.0000 </r>
       <r>   62.0368    0.0000 </r>
       <r>   62.2081    0.0000 </r>
       <r>   62.5463    0.0000 </r>
       <r>   63.3722    0.0000 </r>
       <r>   64.0310    0.0000 </r>
       <r>   65.4838    0.0000 </r>
       <r>   66.8585    0.0000 </r>
       <r>   66.9615    0.0000 </r>
       <r>   68.3266    0.0000 </r>
       <r>   68.3995    0.0000 </r>
       <r>   69.5060    0.0000 </r>
       <r>   70.1200    0.0000 </r>
       <r>   71.9892    0.0000 </r>
      </set>
      <set comment="kpoint 7">
       <r>   -5.1310    1.0000 </r>
       <r>    1.0083    1.0000 </r>
       <r>    2.4810    1.0000 </r>
       <r>    4.6414    1.0000 </r>
       <r>    8.3840    0.0000 </r>
       <r>    9.4837    0.0000 </r>
       <r>    9.8148    0.0000 </r>
       <r>   11.2360    0.0000 </r>
       <r>   11.6333    0.0000 </r>
       <r>   16.2248    0.0000 </r>
       <r>   16.3213    0.0000 </r>
       <r>   17.4348    0.0000 </r>
       <r>   19.3564    0.0000 </r>
       <r>   20.4463    0.0000 </r>
       <r>   22.5962    0.0000 </r>
       <r>   23.9552    0.0000 </r>
       <r>   25.4918    0.0000 </r>
       <r>   25.9228    0.0000 </r>
       <r>   27.7168    0.0000 </r>
       <r>   27.9334    0.0000 </r>
       <r>   31.7086    0.0000 </r>
       <r>   32.2217    0.0000 </r>
       <r>   33.3283    0.0000 </r>
       <r>   34.2718    0.0000 </r>
       <r>   35.2363    0.0000 </r>
       <r>   35.4242    0.0000 </r>
       <r>   37.2666    0.0000 </r>
       <r>   38.7125    0.0000 </r>
       <r>   39.2844    0.0000 </r>
       <r>   40.0588    0.0000 </r>
       <r>   40.9799    0.0000 </r>
       <r>   41.4319    0.0000 </r>
       <r>   43.5337    0.0000 </r>
       <r>   43.7794    0.0000 </r>
       <r>   44.8286    0.0000 </r>
       <r>   45.1707    0.0000 </r>
       <r>   45.2240    0.0000 </r>
       <r>   46.4801    0.0000 </r>
       <r>   48.5808    0.0000 </r>
       <r>   50.3822    0.0000 </r>
       <r>   50.8259    0.0000 </r>
       <r>   51.0414    0.0000 </r>
       <r>   53.2212    0.0000 </r>
       <r>   53.8785    0.0000 </r>
       <r>   54.3681    0.0000 </r>
       <r>   55.0493    0.0000 </r>
       <r>   55.2066    0.0000 </r>
       <r>   56.5537    0.0000 </r>
       <r>   59.2418    0.0000 </r>
       <r>   59.6162    0.0000 </r>
       <r>   59.9659    0.0000 </r>
       <r>   61.4606    0.0000 </r>
       <r>   61.4787    0.0000 </r>
       <r>   62.0331    0.0000 </r>
       <r>   63.5965    0.0000 </r>
       <r>   63.8050    0.0000 </r>
       <r>   65.1061    0.0000 </r>
       <r>   66.7634    0.0000 </r>
       <r>   66.7667    0.0000 </r>
       <r>   66.7784    0.0000 </r>
       <r>   67.5194    0.0000 </r>
       <r>   69.3077    0.0000 </r>
       <r>   70.0397    0.0000 </r>
       <r>   70.3126    0.0000 </r>
      </set>
      <set comment="kpoint 8">
       <r>   -3.7670    1.0000 </r>
       <r>   -0.6944    1.0000 </r>
       <r>    2.7873    1.0000 </r>
       <r>    2.7873    1.0000 </r>
       <r>    6.0680    0.0000 </r>
       <r>    6.8005    0.0000 </r>
       <r>   14.0276    0.0000 </r>
       <r>   14.0276    0.0000 </r>
       <r>   16.3561    0.0000 </r>
       <r>   16.7413    0.0000 </r>
       <r>   18.1697    0.0000 </r>
       <r>   18.1697    0.0000 </r>
       <r>   19.3086    0.0000 </r>
       <r>   20.1957    0.0000 </r>
       <r>   22.0800    0.0000 </r>
       <r>   22.8235    0.0000 </r>
       <r>   22.8235    0.0000 </r>
       <r>   24.4402    0.0000 </r>
       <r>   28.3072    0.0000 </r>
       <r>   28.8007    0.0000 </r>
       <r>   28.8007    0.0000 </r>
       <r>   29.6077    0.0000 </r>
       <r>   30.3026    0.0000 </r>
       <r>   32.7004    0.0000 </r>
       <r>   34.7896    0.0000 </r>
       <r>   34.7896    0.0000 </r>
       <r>   35.6554    0.0000 </r>
       <r>   40.3773    0.0000 </r>
       <r>   40.3774    0.0000 </r>
       <r>   40.9776    0.0000 </r>
       <r>   41.4895    0.0000 </r>
       <r>   41.9116    0.0000 </r>
       <r>   44.7595    0.0000 </r>
       <r>   45.3196    0.0000 </r>
       <r>   45.3197    0.0000 </r>
       <r>   45.8127    0.0000 </r>
       <r>   45.8128    0.0000 </r>
       <r>   46.4100    0.0000 </r>
       <r>   47.7054    0.0000 </r>
       <r>   48.2534    0.0000 </r>
       <r>   49.5045    0.0000 </r>
       <r>   49.5045    0.0000 </r>
       <r>   51.7956    0.0000 </r>
       <r>   55.1732    0.0000 </r>
       <r>   55.1733    0.0000 </r>
       <r>   56.2567    0.0000 </r>
       <r>   58.6785    0.0000 </r>
       <r>   60.0586    0.0000 </r>
       <r>   60.5538    0.0000 </r>
       <r>   61.5404    0.0000 </r>
       <r>   61.5404    0.0000 </r>
       <r>   61.6720    0.0000 </r>
       <r>   61.7372    0.0000 </r>
       <r>   62.8799    0.0000 </r>
       <r>   62.8799    0.0000 </r>
       <r>   65.0808    0.0000 </r>
       <r>   66.6422    0.0000 </r>
       <r>   66.6422    0.0000 </r>
       <r>   67.5079    0.0000 </r>
       <r>   69.4253    0.0000 </r>
       <r>   69.8520    0.0000 </r>
       <r>   70.6053    0.0000 </r>
       <r>   70.6054    0.0000 </r>
       <r>   71.6389    0.0000 </r>
      </set>
      <set comment="kpoint 9">
       <r>   -2.5616    1.0000 </r>
       <r>   -1.9569    1.0000 </r>
       <r>    1.4150    1.0000 </r>
       <r>    2.9061    1.0000 </r>
       <r>    6.5173    0.0000 </r>
       <r>    8.6461    0.0000 </r>
       <r>   13.5977    0.0000 </r>
       <r>   14.1939    0.0000 </r>
       <r>   14.2256    0.0000 </r>
       <r>   14.6067    0.0000 </r>
       <r>   19.8499    0.0000 </r>
       <r>   19.9725    0.0000 </r>
       <r>   20.3112    0.0000 </r>
       <r>   21.3592    0.0000 </r>
       <r>   21.8674    0.0000 </r>
       <r>   22.4025    0.0000 </r>
       <r>   25.4577    0.0000 </r>
       <r>   26.4217    0.0000 </r>
       <r>   26.5036    0.0000 </r>
       <r>   26.5704    0.0000 </r>
       <r>   27.8834    0.0000 </r>
       <r>   29.0072    0.0000 </r>
       <r>   29.9479    0.0000 </r>
       <r>   30.8692    0.0000 </r>
       <r>   35.0498    0.0000 </r>
       <r>   35.8536    0.0000 </r>
       <r>   36.1329    0.0000 </r>
       <r>   37.2178    0.0000 </r>
       <r>   40.1503    0.0000 </r>
       <r>   40.4781    0.0000 </r>
       <r>   40.7878    0.0000 </r>
       <r>   41.2244    0.0000 </r>
       <r>   41.9744    0.0000 </r>
       <r>   43.6508    0.0000 </r>
       <r>   44.6382    0.0000 </r>
       <r>   46.2683    0.0000 </r>
       <r>   47.6656    0.0000 </r>
       <r>   48.6277    0.0000 </r>
       <r>   49.6861    0.0000 </r>
       <r>   49.9006    0.0000 </r>
       <r>   51.2743    0.0000 </r>
       <r>   52.0287    0.0000 </r>
       <r>   54.6430    0.0000 </r>
       <r>   55.1391    0.0000 </r>
       <r>   55.1825    0.0000 </r>
       <r>   57.7723    0.0000 </r>
       <r>   58.4310    0.0000 </r>
       <r>   58.4510    0.0000 </r>
       <r>   59.4952    0.0000 </r>
       <r>   60.3383    0.0000 </r>
       <r>   60.5407    0.0000 </r>
       <r>   60.6757    0.0000 </r>
       <r>   61.5100    0.0000 </r>
       <r>   61.9981    0.0000 </r>
       <r>   63.4717    0.0000 </r>
       <r>   64.6018    0.0000 </r>
       <r>   66.6099    0.0000 </r>
       <r>   68.0658    0.0000 </r>
       <r>   68.4290    0.0000 </r>
       <r>   68.8485    0.0000 </r>
       <r>   69.8387    0.0000 </r>
       <r>   69.8392    0.0000 </r>
       <r>   70.4968    0.0000 </r>
       <r>   71.4153    0.0000 </r>
      </set>
      <set comment="kpoint 10">
       <r>   -3.3276    1.0000 </r>
       <r>   -1.0785    1.0000 </r>
       <r>    1.5002    1.0000 </r>
       <r>    2.4887    1.0000 </r>
       <r>    8.8894    0.0000 </r>
       <r>    9.2688    0.0000 </r>
       <r>    9.9268    0.0000 </r>
       <r>   13.2976    0.0000 </r>
       <r>   13.9767    0.0000 </r>
       <r>   15.7286    0.0000 </r>
       <r>   18.8560    0.0000 </r>
       <r>   19.9630    0.0000 </r>
       <r>   20.0489    0.0000 </r>
       <r>   21.1986    0.0000 </r>
       <r>   22.0822    0.0000 </r>
       <r>   24.2834    0.0000 </r>
       <r>   25.4975    0.0000 </r>
       <r>   25.7483    0.0000 </r>
       <r>   26.2687    0.0000 </r>
       <r>   27.0118    0.0000 </r>
       <r>   28.8006    0.0000 </r>
       <r>   28.9999    0.0000 </r>
       <r>   31.5278    0.0000 </r>
       <r>   33.6206    0.0000 </r>
       <r>   34.4380    0.0000 </r>
       <r>   34.8764    0.0000 </r>
       <r>   35.5984    0.0000 </r>
       <r>   35.9079    0.0000 </r>
       <r>   37.3637    0.0000 </r>
       <r>   38.4236    0.0000 </r>
       <r>   40.5852    0.0000 </r>
       <r>   42.9527    0.0000 </r>
       <r>   43.1175    0.0000 </r>
       <r>   44.5527    0.0000 </r>
       <r>   46.4423    0.0000 </r>
       <r>   46.5342    0.0000 </r>
       <r>   48.5753    0.0000 </r>
       <r>   48.8432    0.0000 </r>
       <r>   49.4618    0.0000 </r>
       <r>   49.5504    0.0000 </r>
       <r>   50.9510    0.0000 </r>
       <r>   51.4823    0.0000 </r>
       <r>   53.4698    0.0000 </r>
       <r>   54.1911    0.0000 </r>
       <r>   55.5196    0.0000 </r>
       <r>   57.5944    0.0000 </r>
       <r>   57.9235    0.0000 </r>
       <r>   58.9696    0.0000 </r>
       <r>   59.2736    0.0000 </r>
       <r>   59.7410    0.0000 </r>
       <r>   59.7971    0.0000 </r>
       <r>   61.9375    0.0000 </r>
       <r>   62.8978    0.0000 </r>
       <r>   63.4733    0.0000 </r>
       <r>   63.6663    0.0000 </r>
       <r>   64.1061    0.0000 </r>
       <r>   65.7300    0.0000 </r>
       <r>   66.1190    0.0000 </r>
       <r>   67.6494    0.0000 </r>
       <r>   68.1562    0.0000 </r>
       <r>   69.4765    0.0000 </r>
       <r>   70.0854    0.0000 </r>
       <r>   70.5797    0.0000 </r>
       <r>   70.7186    0.0000 </r>
      </set>
     </set>
    </set>
   </array>
  </eigenvalues>
  <separator name="orbital magnetization" >
   <v name="MAGDIPOLOUT">      0.00000000      0.00000000      0.00000000</v>
  </separator>
  <dielectricfunction comment="density-density">
   <imag>
    <array>
     <dimension dim="1">gridpoints</dimension>
     <field>energy</field>
     <field>xx</field>
     <field>yy</field>
     <field>zz</field>
     <field>xy</field>
     <field>yz</field>
     <field>zx</field>
     <set>
      <r>     0.0000     0.0000     0.0000     0.0000     0.0000     0.0000     0.0000 </r>
      <r>     0.0492     0.0088     0.0088     0.0088    -0.0000    -0.0000     0.0000 </r>
      <r>     0.0983     0.0175     0.0175     0.0175    -0.0000    -0.0000     0.0000 </r>
      <r>     0.1475     0.0264     0.0264     0.0264    -0.0000    -0.0000     0.0000 </r>
      <r>     0.1966     0.0353     0.0353     0.0353    -0.0000    -0.0000     0.0000 </r>
      <r>     0.2458     0.0442     0.0442     0.0442    -0.0000    -0.0000     0.0000 </r>
      <r>     0.2949     0.0534     0.0534     0.0534    -0.0000    -0.0000     0.0000 </r>
      <r>     0.3441     0.0626     0.0626     0.0626    -0.0000    -0.0000     0.0000 </r>
      <r>     0.3932     0.0721     0.0721     0.0721    -0.0000    -0.0000     0.0000 </r>
      <r>     0.4424     0.0818     0.0818     0.0818    -0.0000    -0.0000     0.0000 </r>
      <r>     0.4915     0.0917     0.0917     0.0917    -0.0000    -0.0000     0.0000 </r>
      <r>     0.5407     0.1019     0.1019     0.1019    -0.0000    -0.0000     0.0000 </r>
      <r>     0.5898     0.1123     0.1123     0.1123    -0.0000    -0.0000     0.0000 </r>
      <r>     0.6390     0.1232     0.1232     0.1232    -0.0000    -0.0000     0.0000 </r>
      <r>     0.6882     0.1344     0.1344     0.1344    -0.0000    -0.0000     0.0000 </r>
      <r>     0.7373     0.1461     0.1461     0.1461    -0.0000    -0.0000     0.0000 </r>
      <r>     0.7865     0.1583     0.1583     0.1583    -0.0000    -0.0000     0.0000 </r>
      <r>     0.8356     0.1710     0.1710     0.1710    -0.0000    -0.0000     0.0000 </r>
      <r>     0.8848     0.1843     0.1843     0.1843    -0.0000    -0.0000     0.0000 </r>
      <r>     0.9339     0.1983     0.1983     0.1983    -0.0000    -0.0000     0.0000 </r>
      <r>     0.9831     0.2131     0.2131     0.2131    -0.0000    -0.0000     0.0000 </r>
      <r>     1.0322     0.2287     0.2287     0.2287    -0.0000    -0.0000     0.0000 </r>
      <r>     1.0814     0.2452     0.2452     0.2452    -0.0000    -0.0000     0.0000 </r>
      <r>     1.1305     0.2628     0.2628     0.2628    -0.0000    -0.0000     0.0000 </r>
      <r>     1.1797     0.2816     0.2816     0.2816    -0.0000    -0.0000     0.0000 </r>
      <r>     1.2288     0.3016     0.3016     0.3016    -0.0000    -0.0000     0.0000 </r>
      <r>     1.2780     0.3232     0.3232     0.3232    -0.0000    -0.0000     0.0000 </r>
      <r>     1.3272     0.3464     0.3464     0.3464    -0.0000    -0.0000     0.0000 </r>
      <r>     1.3763     0.3716     0.3716     0.3716    -0.0000    -0.0000     0.0000 </r>
      <r>     1.4255     0.3989     0.3989     0.3989    -0.0000    -0.0000     0.0000 </r>
      <r>     1.4746     0.4286     0.4286     0.4286    -0.0000    -0.0000     0.0000 </r>
      <r>     1.5238     0.4613     0.4613     0.4613    -0.0000    -0.0000     0.0000 </r>
      <r>     1.5729     0.4972     0.4972     0.4972    -0.0000    -0.0000     0.0000 </r>
      <r>     1.6221     0.5369     0.5369     0.5369    -0.0000    -0.0000     0.0000 </r>
      <r>     1.6712     0.5811     0.5811     0.5811    -0.0000    -0.0000     0.0000 </r>
      <r>     1.7204     0.6306     0.6306     0.6306    -0.0000    -0.0000     0.0000 </r>
      <r>     1.7695     0.6864     0.6864     0.6864    -0.0000    -0.0000     0.0000 </r>
      <r>     1.8187     0.7497     0.7497     0.7497    -0.0000    -0.0000     0.0000 </r>
      <r>     1.8678     0.8223     0.8223     0.8223    -0.0000    -0.0000     0.0000 </r>
      <r>     1.9170     0.9063     0.9063     0.9063    -0.0000    -0.0000     0.0000 </r>
      <r>     1.9662     1.0044     1.0044     1.0044    -0.0000    -0.0000     0.0000 </r>
      <r>     2.0153     1.1207     1.1207     1.1207    -0.0000    -0.0000     0.0000 </r>
      <r>     2.0645     1.2604     1.2604     1.2604    -0.0000    -0.0000     0.0000 </r>
      <r>     2.1136     1.4313     1.4313     1.4313    -0.0000    -0.0000     0.0000 </r>
      <r>     2.1628     1.6448     1.6448     1.6448    -0.0000    -0.0000     0.0000 </r>
      <r>     2.2119     1.9187     1.9187     1.9187    -0.0000    -0.0000     0.0000 </r>
      <r>     2.2611     2.2815     2.2815     2.2815    -0.0000    -0.0000     0.0000 </r>
      <r>     2.3102     2.7823     2.7823     2.7823    -0.0000    -0.0000     0.0000 </r>
      <r>     2.3594     3.5087     3.5087     3.5087    -0.0000    -0.0000     0.0000 </r>
      <r>     2.4085     4.6156     4.6156     4.6156    -0.0000    -0.0000     0.0000 </r>
      <r>     2.4577     6.3141     6.3141     6.3141     0.0000    -0.0000     0.0000 </r>
      <r>     2.5068     8.6308     8.6308     8.6308     0.0000    -0.0000     0.0000 </r>
      <r>     2.5560    11.0884    11.0884    11.0884    -0.0000    -0.0000     0.0000 </r>
      <r>     2.6052    13.4990    13.4990    13.4990    -0.0000    -0.0000     0.0000 </r>
      <r>     2.6543    17.0771    17.0771    17.0771    -0.0000    -0.0000     0.0000 </r>
      <r>     2.7035    22.5090    22.5090    22.5090    -0.0000    -0.0000     0.0000 </r>
      <r>     2.7526    27.3571    27.3571    27.3571    -0.0000    -0.0000     0.0000 </r>
      <r>     2.8018    28.0437    28.0437    28.0437    -0.0000    -0.0000     0.0000 </r>
      <r>     2.8509    25.1280    25.1280    25.1280    -0.0000    -0.0000     0.0000 </r>
      <r>     2.9001    22.1037    22.1037    22.1037    -0.0000    -0.0000     0.0000 </r>
      <r>     2.9492    19.6620    19.6620    19.6620    -0.0000    -0.0000     0.0000 </r>
      <r>     2.9984    16.4065    16.4065    16.4065    -0.0000    -0.0000     0.0000 </r>
      <r>     3.0475    13.0318    13.0318    13.0318    -0.0000    -0.0000     0.0000 </r>
      <r>     3.0967    10.9993    10.9993    10.9993    -0.0000    -0.0000     0.0000 </r>
      <r>     3.1458    10.7158    10.7158    10.7158    -0.0000    -0.0000     0.0000 </r>
      <r>     3.1950    12.0113    12.0113    12.0113    -0.0000    -0.0000     0.0000 </r>
      <r>     3.2442    14.1058    14.1058    14.1058    -0.0000    -0.0000     0.0000 </r>
      <r>     3.2933    15.3540    15.3540    15.3540    -0.0000    -0.0000     0.0000 </r>
      <r>     3.3425    15.0380    15.0380    15.0380    -0.0000    -0.0000     0.0000 </r>
      <r>     3.3916    14.4754    14.4754    14.4754    -0.0000    -0.0000     0.0000 </r>
      <r>     3.4408    15.2130    15.2130    15.2130    -0.0000    -0.0000     0.0000 </r>
      <r>     3.4899    18.2493    18.2493    18.2493    -0.0000    -0.0000     0.0000 </r>
      <r>     3.5391    24.1060    24.1060    24.1060    -0.0000    -0.0000     0.0000 </r>
      <r>     3.5882    32.2032    32.2032    32.2032    -0.0000    -0.0000     0.0000 </r>
      <r>     3.6374    41.5653    41.5653    41.5653    -0.0000    -0.0000     0.0000 </r>
      <r>     3.6865    53.2288    53.2288    53.2288    -0.0000    -0.0000     0.0000 </r>
      <r>     3.7357    65.1695    65.1695    65.1695     0.0000    -0.0000     0.0000 </r>
      <r>     3.7848    67.8163    67.8163    67.8163     0.0000    -0.0000     0.0000 </r>
      <r>     3.8340    58.0473    58.0473    58.0473     0.0000    -0.0000     0.0000 </r>
      <r>     3.8832    45.9028    45.9028    45.9028     0.0000    -0.0000     0.0000 </r>
      <r>     3.9323    37.6574    37.6574    37.6574     0.0000    -0.0000     0.0000 </r>
      <r>     3.9815    31.0381    31.0381    31.0381     0.0000    -0.0000     0.0000 </r>
      <r>     4.0306    24.0284    24.0284    24.0284     0.0000    -0.0000     0.0000 </r>
      <r>     4.0798    17.5326    17.5326    17.5326     0.0000    -0.0000     0.0000 </r>
      <r>     4.1289    12.7370    12.7370    12.7370     0.0000    -0.0000     0.0000 </r>
      <r>     4.1781     9.7137     9.7137     9.7137     0.0000    -0.0000     0.0000 </r>
      <r>     4.2272     7.9802     7.9802     7.9802     0.0000    -0.0000     0.0000 </r>
      <r>     4.2764     7.1487     7.1487     7.1487     0.0000    -0.0000     0.0000 </r>
      <r>     4.3255     7.0526     7.0526     7.0526     0.0000    -0.0000     0.0000 </r>
      <r>     4.3747     7.6424     7.6424     7.6424     0.0000    -0.0000     0.0000 </r>
      <r>     4.4238     8.9453     8.9453     8.9453     0.0000    -0.0000     0.0000 </r>
      <r>     4.4730    11.0188    11.0188    11.0188     0.0000    -0.0000     0.0000 </r>
      <r>     4.5222    13.0132    13.0132    13.0132     0.0000    -0.0000     0.0000 </r>
      <r>     4.5713    12.9339    12.9339    12.9339     0.0000    -0.0000     0.0000 </r>
      <r>     4.6205    10.5728    10.5728    10.5728     0.0000    -0.0000     0.0000 </r>
      <r>     4.6696     8.0251     8.0251     8.0251     0.0000    -0.0000     0.0000 </r>
      <r>     4.7188     6.6087     6.6087     6.6087     0.0000    -0.0000     0.0000 </r>
      <r>     4.7679     6.2953     6.2953     6.2953     0.0000    -0.0000     0.0000 </r>
      <r>     4.8171     6.3848     6.3848     6.3848     0.0000    -0.0000     0.0000 </r>
      <r>     4.8662     5.9439     5.9439     5.9439     0.0000    -0.0000     0.0000 </r>
      <r>     4.9154     4.8529     4.8529     4.8529     0.0000    -0.0000     0.0000 </r>
      <r>     4.9645     3.7897     3.7897     3.7897     0.0000    -0.0000     0.0000 </r>
      <r>     5.0137     3.1337     3.1337     3.1337     0.0000    -0.0000     0.0000 </r>
      <r>     5.0628     2.8252     2.8252     2.8252     0.0000    -0.0000     0.0000 </r>
      <r>     5.1120     2.6969     2.6969     2.6969     0.0000    -0.0000     0.0000 </r>
      <r>     5.1612     2.6738     2.6738     2.6738     0.0000    -0.0000     0.0000 </r>
      <r>     5.2103     2.8184     2.8184     2.8184     0.0000    -0.0000     0.0000 </r>
      <r>     5.2595     3.2241     3.2241     3.2241     0.0000    -0.0000     0.0000 </r>
      <r>     5.3086     3.9473     3.9473     3.9473     0.0000    -0.0000     0.0000 </r>
      <r>     5.3578     4.7180     4.7180     4.7180     0.0000    -0.0000     0.0000 </r>
      <r>     5.4069     4.8806     4.8806     4.8806     0.0000    -0.0000     0.0000 </r>
      <r>     5.4561     4.2886     4.2886     4.2886     0.0000    -0.0000     0.0000 </r>
      <r>     5.5052     3.4415     3.4415     3.4415     0.0000    -0.0000     0.0000 </r>
      <r>     5.5544     2.6544     2.6544     2.6544     0.0000    -0.0000     0.0000 </r>
      <r>     5.6035     2.0483     2.0483     2.0483     0.0000    -0.0000     0.0000 </r>
      <r>     5.6527     1.6547     1.6547     1.6547     0.0000    -0.0000     0.0000 </r>
      <r>     5.7018     1.4241     1.4241     1.4241     0.0000    -0.0000     0.0000 </r>
      <r>     5.7510     1.2979     1.2979     1.2979     0.0000    -0.0000     0.0000 </r>
      <r>     5.8002     1.2420     1.2420     1.2420     0.0000    -0.0000     0.0000 </r>
      <r>     5.8493     1.2420     1.2420     1.2420     0.0000    -0.0000     0.0000 </r>
      <r>     5.8985     1.2967     1.2967     1.2967     0.0000    -0.0000     0.0000 </r>
      <r>     5.9476     1.4197     1.4197     1.4197     0.0000    -0.0000     0.0000 </r>
      <r>     5.9968     1.6368     1.6368     1.6368     0.0000    -0.0000     0.0000 </r>
      <r>     6.0459     1.9352     1.9352     1.9352     0.0000    -0.0000     0.0000 </r>
      <r>     6.0951     2.2040     2.2040     2.2040     0.0000    -0.0000     0.0000 </r>
      <r>     6.1442     2.3704     2.3704     2.3704     0.0000    -0.0000     0.0000 </r>
      <r>     6.1934     2.5975     2.5975     2.5975     0.0000    -0.0000     0.0000 </r>
      <r>     6.2425     3.1335     3.1335     3.1335     0.0000    -0.0000     0.0000 </r>
      <r>     6.2917     4.1494     4.1494     4.1494     0.0000    -0.0000     0.0000 </r>
      <r>     6.3408     5.5841     5.5841     5.5841     0.0000    -0.0000     0.0000 </r>
      <r>     6.3900     6.8961     6.8961     6.8961     0.0000    -0.0000     0.0000 </r>
      <r>     6.4392     7.5612     7.5612     7.5612     0.0000    -0.0000     0.0000 </r>
      <r>     6.4883     7.8480     7.8480     7.8480     0.0000    -0.0000     0.0000 </r>
      <r>     6.5375     7.9435     7.9435     7.9435     0.0000    -0.0000     0.0000 </r>
      <r>     6.5866     7.8399     7.8399     7.8399     0.0000    -0.0000     0.0000 </r>
      <r>     6.6358     8.0432     8.0432     8.0432     0.0000    -0.0000     0.0000 </r>
      <r>     6.6849     8.7160     8.7160     8.7160     0.0000    -0.0000     0.0000 </r>
      <r>     6.7341     9.0956     9.0956     9.0956     0.0000    -0.0000     0.0000 </r>
      <r>     6.7832     8.3928     8.3928     8.3928     0.0000    -0.0000     0.0000 </r>
      <r>     6.8324     7.0182     7.0182     7.0182     0.0000    -0.0000     0.0000 </r>
      <r>     6.8815     5.9984     5.9984     5.9984     0.0000    -0.0000     0.0000 </r>
      <r>     6.9307     5.7296     5.7296     5.7296     0.0000    -0.0000     0.0000 </r>
      <r>     6.9798     5.7373     5.7373     5.7373     0.0000    -0.0000     0.0000 </r>
      <r>     7.0290     5.4047     5.4047     5.4047     0.0000    -0.0000     0.0000 </r>
      <r>     7.0782     4.8850     4.8850     4.8850     0.0000    -0.0000     0.0000 </r>
      <r>     7.1273     4.7408     4.7408     4.7408    -0.0000    -0.0000     0.0000 </r>
      <r>     7.1765     5.1672     5.1672     5.1672    -0.0000    -0.0000     0.0000 </r>
      <r>     7.2256     5.9045     5.9045     5.9045    -0.0000    -0.0000     0.0000 </r>
      <r>     7.2748     6.7351     6.7351     6.7351     0.0000    -0.0000     0.0000 </r>
      <r>     7.3239     7.9641     7.9641     7.9641     0.0000    -0.0000     0.0000 </r>
      <r>     7.3731     9.7033     9.7033     9.7033     0.0000    -0.0000     0.0000 </r>
      <r>     7.4222    11.1216    11.1216    11.1216     0.0000    -0.0000     0.0000 </r>
      <r>     7.4714    11.2460    11.2460    11.2460     0.0000    -0.0000     0.0000 </r>
      <r>     7.5205    10.4135    10.4135    10.4135     0.0000    -0.0000     0.0000 </r>
      <r>     7.5697     9.4304     9.4304     9.4304     0.0000    -0.0000     0.0000 </r>
      <r>     7.6188     8.4701     8.4701     8.4701     0.0000    -0.0000     0.0000 </r>
      <r>     7.6680     7.6291     7.6291     7.6291     0.0000    -0.0000     0.0000 </r>
      <r>     7.7172     6.9252     6.9252     6.9252     0.0000    -0.0000     0.0000 </r>
      <r>     7.7663     6.1533     6.1533     6.1533     0.0000    -0.0000     0.0000 </r>
      <r>     7.8155     5.1187     5.1187     5.1187     0.0000    -0.0000     0.0000 </r>
      <r>     7.8646     4.1402     4.1402     4.1402     0.0000    -0.0000     0.0000 </r>
      <r>     7.9138     3.6464     3.6464     3.6464     0.0000    -0.0000     0.0000 </r>
      <r>     7.9629     3.7568     3.7568     3.7568     0.0000    -0.0000     0.0000 </r>
      <r>     8.0121     4.2714     4.2714     4.2714     0.0000    -0.0000     0.0000 </r>
      <r>     8.0612     4.5837     4.5837     4.5837     0.0000    -0.0000     0.0000 </r>
      <r>     8.1104     4.1996     4.1996     4.1996     0.0000    -0.0000     0.0000 </r>
      <r>     8.1595     3.4878     3.4878     3.4878     0.0000    -0.0000     0.0000 </r>
      <r>     8.2087     2.9544     2.9544     2.9544     0.0000    -0.0000     0.0000 </r>
      <r>     8.2578     2.5414     2.5414     2.5414     0.0000    -0.0000     0.0000 </r>
      <r>     8.3070     2.0542     2.0542     2.0542     0.0000    -0.0000     0.0000 </r>
      <r>     8.3561     1.5860     1.5860     1.5860     0.0000    -0.0000     0.0000 </r>
      <r>     8.4053     1.2603     1.2603     1.2603     0.0000    -0.0000     0.0000 </r>
      <r>     8.4545     1.0766     1.0766     1.0766     0.0000    -0.0000     0.0000 </r>
      <r>     8.5036     0.9998     0.9998     0.9998     0.0000    -0.0000     0.0000 </r>
      <r>     8.5528     1.0082     1.0082     1.0082     0.0000    -0.0000     0.0000 </r>
      <r>     8.6019     1.0878     1.0878     1.0878     0.0000    -0.0000     0.0000 </r>
      <r>     8.6511     1.2430     1.2430     1.2430     0.0000    -0.0000     0.0000 </r>
      <r>     8.7002     1.4670     1.4670     1.4670     0.0000    -0.0000     0.0000 </r>
      <r>     8.7494     1.6148     1.6148     1.6148     0.0000    -0.0000     0.0000 </r>
      <r>     8.7985     1.5081     1.5081     1.5081     0.0000    -0.0000     0.0000 </r>
      <r>     8.8477     1.2339     1.2339     1.2339     0.0000    -0.0000     0.0000 </r>
      <r>     8.8968     1.0003     1.0003     1.0003    -0.0000    -0.0000     0.0000 </r>
      <r>     8.9460     0.8986     0.8986     0.8986    -0.0000    -0.0000     0.0000 </r>
      <r>     8.9951     0.9177     0.9177     0.9177    -0.0000    -0.0000     0.0000 </r>
      <r>     9.0443     0.9787     0.9787     0.9787    -0.0000    -0.0000     0.0000 </r>
      <r>     9.0935     0.9586     0.9586     0.9586     0.0000    -0.0000     0.0000 </r>
      <r>     9.1426     0.8363     0.8363     0.8363     0.0000    -0.0000     0.0000 </r>
      <r>     9.1918     0.7167     0.7167     0.7167     0.0000    -0.0000     0.0000 </r>
      <r>     9.2409     0.6730     0.6730     0.6730     0.0000    -0.0000     0.0000 </r>
      <r>     9.2901     0.7173     0.7173     0.7173     0.0000    -0.0000     0.0000 </r>
      <r>     9.3392     0.8316     0.8316     0.8316     0.0000    -0.0000     0.0000 </r>
      <r>     9.3884     0.9367     0.9367     0.9367     0.0000    -0.0000     0.0000 </r>
      <r>     9.4375     0.9180     0.9180     0.9180    -0.0000    -0.0000     0.0000 </r>
      <r>     9.4867     0.7932     0.7932     0.7932    -0.0000    -0.0000     0.0000 </r>
      <r>     9.5358     0.6878     0.6878     0.6878    -0.0000    -0.0000     0.0000 </r>
      <r>     9.5850     0.6721     0.6721     0.6721    -0.0000    -0.0000     0.0000 </r>
      <r>     9.6341     0.7563     0.7563     0.7563     0.0000    -0.0000     0.0000 </r>
      <r>     9.6833     0.9080     0.9080     0.9080     0.0000    -0.0000     0.0000 </r>
      <r>     9.7325     1.0173     1.0173     1.0173     0.0000    -0.0000     0.0000 </r>
      <r>     9.7816     0.9899     0.9899     0.9899     0.0000    -0.0000     0.0000 </r>
      <r>     9.8308     0.8923     0.8923     0.8923     0.0000    -0.0000     0.0000 </r>
      <r>     9.8799     0.8357     0.8357     0.8357     0.0000    -0.0000     0.0000 </r>
      <r>     9.9291     0.8748     0.8748     0.8748     0.0000    -0.0000     0.0000 </r>
      <r>     9.9782     1.0122     1.0122     1.0122     0.0000    -0.0000     0.0000 </r>
      <r>    10.0274     1.2007     1.2007     1.2007     0.0000    -0.0000     0.0000 </r>
      <r>    10.0765     1.3608     1.3608     1.3608     0.0000    -0.0000     0.0000 </r>
      <r>    10.1257     1.4347     1.4347     1.4347     0.0000    -0.0000     0.0000 </r>
      <r>    10.1748     1.3933     1.3933     1.3933     0.0000    -0.0000     0.0000 </r>
      <r>    10.2240     1.2384     1.2384     1.2384     0.0000    -0.0000     0.0000 </r>
      <r>    10.2731     1.0462     1.0462     1.0462     0.0000    -0.0000     0.0000 </r>
      <r>    10.3223     0.8902     0.8902     0.8902     0.0000    -0.0000     0.0000 </r>
      <r>    10.3715     0.7603     0.7603     0.7603     0.0000    -0.0000     0.0000 </r>
      <r>    10.4206     0.6496     0.6496     0.6496     0.0000    -0.0000     0.0000 </r>
      <r>    10.4698     0.5983     0.5983     0.5983    -0.0000    -0.0000     0.0000 </r>
      <r>    10.5189     0.6317     0.6317     0.6317    -0.0000    -0.0000     0.0000 </r>
      <r>    10.5681     0.7199     0.7199     0.7199    -0.0000    -0.0000     0.0000 </r>
      <r>    10.6172     0.7663     0.7663     0.7663    -0.0000    -0.0000     0.0000 </r>
      <r>    10.6664     0.6986     0.6986     0.6986    -0.0000    -0.0000     0.0000 </r>
      <r>    10.7155     0.5679     0.5679     0.5679    -0.0000    -0.0000     0.0000 </r>
      <r>    10.7647     0.4530     0.4530     0.4530    -0.0000    -0.0000     0.0000 </r>
      <r>    10.8138     0.3776     0.3776     0.3776    -0.0000    -0.0000     0.0000 </r>
      <r>    10.8630     0.3354     0.3354     0.3354     0.0000    -0.0000     0.0000 </r>
      <r>    10.9121     0.3245     0.3245     0.3245     0.0000    -0.0000     0.0000 </r>
      <r>    10.9613     0.3413     0.3413     0.3413     0.0000    -0.0000     0.0000 </r>
      <r>    11.0105     0.3613     0.3613     0.3613     0.0000    -0.0000     0.0000 </r>
      <r>    11.0596     0.3553     0.3553     0.3553     0.0000    -0.0000     0.0000 </r>
      <r>    11.1088     0.3353     0.3353     0.3353     0.0000    -0.0000     0.0000 </r>
      <r>    11.1579     0.3374     0.3374     0.3374     0.0000    -0.0000     0.0000 </r>
      <r>    11.2071     0.3724     0.3724     0.3724     0.0000    -0.0000     0.0000 </r>
      <r>    11.2562     0.4155     0.4155     0.4155     0.0000    -0.0000     0.0000 </r>
      <r>    11.3054     0.4244     0.4244     0.4244     0.0000    -0.0000     0.0000 </r>
      <r>    11.3545     0.3836     0.3836     0.3836     0.0000    -0.0000     0.0000 </r>
      <r>    11.4037     0.3301     0.3301     0.3301     0.0000    -0.0000     0.0000 </r>
      <r>    11.4528     0.3009     0.3009     0.3009     0.0000    -0.0000     0.0000 </r>
      <r>    11.5020     0.3002     0.3002     0.3002     0.0000    -0.0000     0.0000 </r>
      <r>    11.5511     0.3244     0.3244     0.3244     0.0000    -0.0000     0.0000 </r>
      <r>    11.6003     0.3797     0.3797     0.3797     0.0000    -0.0000     0.0000 </r>
      <r>    11.6495     0.4633     0.4633     0.4633    -0.0000    -0.0000     0.0000 </r>
      <r>    11.6986     0.5401     0.5401     0.5401    -0.0000    -0.0000     0.0000 </r>
      <r>    11.7478     0.5802     0.5802     0.5802     0.0000    -0.0000     0.0000 </r>
      <r>    11.7969     0.5916     0.5916     0.5916     0.0000    -0.0000     0.0000 </r>
      <r>    11.8461     0.5724     0.5724     0.5724     0.0000    -0.0000     0.0000 </r>
      <r>    11.8952     0.5182     0.5182     0.5182     0.0000    -0.0000     0.0000 </r>
      <r>    11.9444     0.4440     0.4440     0.4440     0.0000    -0.0000     0.0000 </r>
      <r>    11.9935     0.3849     0.3849     0.3849     0.0000    -0.0000     0.0000 </r>
      <r>    12.0427     0.3748     0.3748     0.3748     0.0000    -0.0000     0.0000 </r>
      <r>    12.0918     0.4249     0.4249     0.4249     0.0000    -0.0000     0.0000 </r>
      <r>    12.1410     0.5082     0.5082     0.5082     0.0000    -0.0000     0.0000 </r>
      <r>    12.1901     0.5475     0.5475     0.5475     0.0000    -0.0000     0.0000 </r>
      <r>    12.2393     0.4885     0.4885     0.4885     0.0000    -0.0000     0.0000 </r>
      <r>    12.2885     0.3779     0.3779     0.3779     0.0000    -0.0000     0.0000 </r>
      <r>    12.3376     0.2862     0.2862     0.2862     0.0000    -0.0000     0.0000 </r>
      <r>    12.3868     0.2344     0.2344     0.2344     0.0000    -0.0000     0.0000 </r>
      <r>    12.4359     0.2113     0.2113     0.2113     0.0000    -0.0000     0.0000 </r>
      <r>    12.4851     0.2008     0.2008     0.2008    -0.0000    -0.0000     0.0000 </r>
      <r>    12.5342     0.1952     0.1952     0.1952    -0.0000    -0.0000     0.0000 </r>
      <r>    12.5834     0.2002     0.2002     0.2002    -0.0000    -0.0000     0.0000 </r>
      <r>    12.6325     0.2250     0.2250     0.2250    -0.0000    -0.0000     0.0000 </r>
      <r>    12.6817     0.2776     0.2776     0.2776    -0.0000    -0.0000     0.0000 </r>
      <r>    12.7308     0.3548     0.3548     0.3548    -0.0000    -0.0000     0.0000 </r>
      <r>    12.7800     0.4192     0.4192     0.4192    -0.0000    -0.0000     0.0000 </r>
      <r>    12.8291     0.4135     0.4135     0.4135    -0.0000    -0.0000     0.0000 </r>
      <r>    12.8783     0.3409     0.3409     0.3409    -0.0000    -0.0000     0.0000 </r>
      <r>    12.9275     0.2651     0.2651     0.2651    -0.0000    -0.0000     0.0000 </r>
      <r>    12.9766     0.2221     0.2221     0.2221    -0.0000    -0.0000     0.0000 </r>
      <r>    13.0258     0.2107     0.2107     0.2107    -0.0000    -0.0000     0.0000 </r>
      <r>    13.0749     0.2192     0.2192     0.2192    -0.0000    -0.0000     0.0000 </r>
      <r>    13.1241     0.2387     0.2387     0.2387    -0.0000    -0.0000     0.0000 </r>
      <r>    13.1732     0.2709     0.2709     0.2709     0.0000    -0.0000     0.0000 </r>
      <r>    13.2224     0.3084     0.3084     0.3084     0.0000    -0.0000     0.0000 </r>
      <r>    13.2715     0.3264     0.3264     0.3264    -0.0000    -0.0000     0.0000 </r>
      <r>    13.3207     0.3268     0.3268     0.3268    -0.0000    -0.0000     0.0000 </r>
      <r>    13.3698     0.3362     0.3362     0.3362    -0.0000    -0.0000     0.0000 </r>
      <r>    13.4190     0.3536     0.3536     0.3536    -0.0000    -0.0000     0.0000 </r>
      <r>    13.4681     0.3637     0.3637     0.3637    -0.0000    -0.0000     0.0000 </r>
      <r>    13.5173     0.3655     0.3655     0.3655    -0.0000    -0.0000     0.0000 </r>
      <r>    13.5665     0.3538     0.3538     0.3538    -0.0000    -0.0000     0.0000 </r>
      <r>    13.6156     0.3331     0.3331     0.3331     0.0000    -0.0000     0.0000 </r>
      <r>    13.6648     0.3271     0.3271     0.3271     0.0000    -0.0000     0.0000 </r>
      <r>    13.7139     0.3575     0.3575     0.3575     0.0000    -0.0000     0.0000 </r>
      <r>    13.7631     0.4345     0.4345     0.4345     0.0000    -0.0000     0.0000 </r>
      <r>    13.8122     0.5326     0.5326     0.5326     0.0000    -0.0000     0.0000 </r>
      <r>    13.8614     0.5874     0.5874     0.5874     0.0000    -0.0000     0.0000 </r>
      <r>    13.9105     0.5830     0.5830     0.5830     0.0000    -0.0000     0.0000 </r>
      <r>    13.9597     0.5579     0.5579     0.5579     0.0000    -0.0000     0.0000 </r>
      <r>    14.0088     0.5133     0.5133     0.5133     0.0000    -0.0000     0.0000 </r>
      <r>    14.0580     0.4485     0.4485     0.4485     0.0000    -0.0000     0.0000 </r>
      <r>    14.1071     0.3913     0.3913     0.3913     0.0000    -0.0000     0.0000 </r>
      <r>    14.1563     0.3660     0.3660     0.3660     0.0000    -0.0000     0.0000 </r>
      <r>    14.2055     0.3704     0.3704     0.3704     0.0000    -0.0000     0.0000 </r>
      <r>    14.2546     0.3801     0.3801     0.3801     0.0000    -0.0000     0.0000 </r>
      <r>    14.3038     0.3830     0.3830     0.3830     0.0000    -0.0000     0.0000 </r>
      <r>    14.3529     0.3789     0.3789     0.3789     0.0000    -0.0000     0.0000 </r>
      <r>    14.4021     0.3532     0.3532     0.3532     0.0000    -0.0000     0.0000 </r>
      <r>    14.4512     0.3016     0.3016     0.3016     0.0000    -0.0000     0.0000 </r>
      <r>    14.5004     0.2531     0.2531     0.2531     0.0000    -0.0000     0.0000 </r>
      <r>    14.5495     0.2275     0.2275     0.2275     0.0000    -0.0000     0.0000 </r>
      <r>    14.5987     0.2177     0.2177     0.2177     0.0000    -0.0000     0.0000 </r>
      <r>    14.6478     0.2116     0.2116     0.2116     0.0000    -0.0000     0.0000 </r>
      <r>    14.6970     0.2125     0.2125     0.2125     0.0000    -0.0000     0.0000 </r>
      <r>    14.7461     0.2323     0.2323     0.2323     0.0000    -0.0000     0.0000 </r>
      <r>    14.7953     0.2714     0.2714     0.2714     0.0000    -0.0000     0.0000 </r>
      <r>    14.8445     0.3114     0.3114     0.3114     0.0000    -0.0000     0.0000 </r>
      <r>    14.8936     0.3266     0.3266     0.3266     0.0000    -0.0000     0.0000 </r>
      <r>    14.9428     0.3151     0.3151     0.3151     0.0000    -0.0000     0.0000 </r>
      <r>    14.9919     0.3079     0.3079     0.3079     0.0000    -0.0000     0.0000 </r>
      <r>    15.0411     0.3252     0.3252     0.3252     0.0000    -0.0000     0.0000 </r>
      <r>    15.0902     0.3531     0.3531     0.3531     0.0000    -0.0000     0.0000 </r>
      <r>    15.1394     0.3729     0.3729     0.3729     0.0000    -0.0000     0.0000 </r>
      <r>    15.1885     0.3767     0.3767     0.3767     0.0000    -0.0000     0.0000 </r>
      <r>    15.2377     0.3506     0.3506     0.3506     0.0000    -0.0000     0.0000 </r>
      <r>    15.2868     0.3010     0.3010     0.3010     0.0000    -0.0000     0.0000 </r>
      <r>    15.3360     0.2509     0.2509     0.2509     0.0000    -0.0000     0.0000 </r>
      <r>    15.3851     0.2120     0.2120     0.2120     0.0000    -0.0000     0.0000 </r>
      <r>    15.4343     0.1868     0.1868     0.1868     0.0000    -0.0000     0.0000 </r>
      <r>    15.4835     0.1726     0.1726     0.1726     0.0000    -0.0000     0.0000 </r>
      <r>    15.5326     0.1611     0.1611     0.1611     0.0000    -0.0000     0.0000 </r>
      <r>    15.5818     0.1474     0.1474     0.1474     0.0000    -0.0000     0.0000 </r>
      <r>    15.6309     0.1333     0.1333     0.1333     0.0000    -0.0000     0.0000 </r>
      <r>    15.6801     0.1263     0.1263     0.1263     0.0000    -0.0000     0.0000 </r>
      <r>    15.7292     0.1311     0.1311     0.1311     0.0000    -0.0000     0.0000 </r>
      <r>    15.7784     0.1423     0.1423     0.1423     0.0000    -0.0000     0.0000 </r>
      <r>    15.8275     0.1494     0.1494     0.1494    -0.0000    -0.0000     0.0000 </r>
      <r>    15.8767     0.1437     0.1437     0.1437    -0.0000    -0.0000     0.0000 </r>
      <r>    15.9258     0.1255     0.1255     0.1255    -0.0000    -0.0000     0.0000 </r>
      <r>    15.9750     0.1080     0.1080     0.1080    -0.0000    -0.0000     0.0000 </r>
      <r>    16.0241     0.1016     0.1016     0.1016    -0.0000    -0.0000     0.0000 </r>
      <r>    16.0733     0.1063     0.1063     0.1063    -0.0000    -0.0000     0.0000 </r>
      <r>    16.1225     0.1158     0.1158     0.1158    -0.0000    -0.0000     0.0000 </r>
      <r>    16.1716     0.1215     0.1215     0.1215    -0.0000    -0.0000     0.0000 </r>
      <r>    16.2208     0.1224     0.1224     0.1224    -0.0000    -0.0000     0.0000 </r>
      <r>    16.2699     0.1289     0.1289     0.1289    -0.0000    -0.0000     0.0000 </r>
      <r>    16.3191     0.1469     0.1469     0.1469    -0.0000    -0.0000     0.0000 </r>
      <r>    16.3682     0.1649     0.1649     0.1649    -0.0000    -0.0000     0.0000 </r>
      <r>    16.4174     0.1653     0.1653     0.1653    -0.0000    -0.0000     0.0000 </r>
      <r>    16.4665     0.1507     0.1507     0.1507    -0.0000    -0.0000     0.0000 </r>
      <r>    16.5157     0.1373     0.1373     0.1373     0.0000    -0.0000     0.0000 </r>
      <r>    16.5648     0.1312     0.1312     0.1312     0.0000    -0.0000     0.0000 </r>
      <r>    16.6140     0.1295     0.1295     0.1295     0.0000    -0.0000     0.0000 </r>
      <r>    16.6631     0.1353     0.1353     0.1353     0.0000    -0.0000     0.0000 </r>
      <r>    16.7123     0.1545     0.1545     0.1545     0.0000    -0.0000     0.0000 </r>
      <r>    16.7615     0.1868     0.1868     0.1868     0.0000    -0.0000     0.0000 </r>
      <r>    16.8106     0.2234     0.2234     0.2234     0.0000    -0.0000     0.0000 </r>
      <r>    16.8598     0.2454     0.2454     0.2454     0.0000    -0.0000     0.0000 </r>
      <r>    16.9089     0.2325     0.2325     0.2325     0.0000    -0.0000     0.0000 </r>
      <r>    16.9581     0.1956     0.1956     0.1956     0.0000    -0.0000     0.0000 </r>
      <r>    17.0072     0.1631     0.1631     0.1631     0.0000    -0.0000     0.0000 </r>
      <r>    17.0564     0.1437     0.1437     0.1437     0.0000    -0.0000     0.0000 </r>
      <r>    17.1055     0.1299     0.1299     0.1299     0.0000    -0.0000     0.0000 </r>
      <r>    17.1547     0.1214     0.1214     0.1214     0.0000    -0.0000     0.0000 </r>
      <r>    17.2038     0.1206     0.1206     0.1206    -0.0000    -0.0000     0.0000 </r>
      <r>    17.2530     0.1234     0.1234     0.1234    -0.0000    -0.0000     0.0000 </r>
      <r>    17.3021     0.1281     0.1281     0.1281    -0.0000    -0.0000     0.0000 </r>
      <r>    17.3513     0.1353     0.1353     0.1353    -0.0000    -0.0000     0.0000 </r>
      <r>    17.4005     0.1392     0.1392     0.1392     0.0000    -0.0000     0.0000 </r>
      <r>    17.4496     0.1311     0.1311     0.1311     0.0000    -0.0000     0.0000 </r>
      <r>    17.4988     0.1161     0.1161     0.1161     0.0000    -0.0000     0.0000 </r>
      <r>    17.5479     0.1043     0.1043     0.1043     0.0000    -0.0000     0.0000 </r>
      <r>    17.5971     0.0971     0.0971     0.0971     0.0000    -0.0000     0.0000 </r>
      <r>    17.6462     0.0937     0.0937     0.0937     0.0000    -0.0000     0.0000 </r>
      <r>    17.6954     0.0974     0.0974     0.0974     0.0000    -0.0000     0.0000 </r>
      <r>    17.7445     0.1131     0.1131     0.1131     0.0000    -0.0000     0.0000 </r>
      <r>    17.7937     0.1397     0.1397     0.1397     0.0000    -0.0000     0.0000 </r>
      <r>    17.8428     0.1619     0.1619     0.1619     0.0000    -0.0000     0.0000 </r>
      <r>    17.8920     0.1631     0.1631     0.1631     0.0000    -0.0000     0.0000 </r>
      <r>    17.9411     0.1478     0.1478     0.1478     0.0000    -0.0000     0.0000 </r>
      <r>    17.9903     0.1273     0.1273     0.1273     0.0000    -0.0000     0.0000 </r>
      <r>    18.0395     0.1092     0.1092     0.1092     0.0000    -0.0000     0.0000 </r>
      <r>    18.0886     0.1008     0.1008     0.1008     0.0000    -0.0000     0.0000 </r>
      <r>    18.1378     0.1020     0.1020     0.1020     0.0000    -0.0000     0.0000 </r>
      <r>    18.1869     0.1059     0.1059     0.1059     0.0000    -0.0000     0.0000 </r>
      <r>    18.2361     0.1064     0.1064     0.1064    -0.0000    -0.0000     0.0000 </r>
      <r>    18.2852     0.1061     0.1061     0.1061    -0.0000    -0.0000     0.0000 </r>
      <r>    18.3344     0.1056     0.1056     0.1056    -0.0000    -0.0000     0.0000 </r>
      <r>    18.3835     0.0994     0.0994     0.0994    -0.0000    -0.0000     0.0000 </r>
      <r>    18.4327     0.0890     0.0890     0.0890    -0.0000    -0.0000     0.0000 </r>
      <r>    18.4818     0.0784     0.0784     0.0784    -0.0000    -0.0000     0.0000 </r>
      <r>    18.5310     0.0692     0.0692     0.0692    -0.0000    -0.0000     0.0000 </r>
      <r>    18.5801     0.0635     0.0635     0.0635     0.0000    -0.0000     0.0000 </r>
      <r>    18.6293     0.0625     0.0625     0.0625     0.0000    -0.0000     0.0000 </r>
      <r>    18.6785     0.0643     0.0643     0.0643     0.0000    -0.0000     0.0000 </r>
[...]
       <r>    61.9235     7.2600   104.2682 </r>
       <r>    61.9685     8.6996   104.6602 </r>
       <r>    62.0136     7.4018   104.9937 </r>
       <r>    62.0586     7.4932   105.3313 </r>
       <r>    62.1037     3.1377   105.4727 </r>
       <r>    62.1487     0.7282   105.5055 </r>
       <r>    62.1938     2.5367   105.6198 </r>
       <r>    62.2389     3.9616   105.7983 </r>
       <r>    62.2839     1.5270   105.8671 </r>
       <r>    62.3290     0.7381   105.9004 </r>
       <r>    62.3740     3.0540   106.0380 </r>
       <r>    62.4191     3.6909   106.2043 </r>
       <r>    62.4641     1.1761   106.2573 </r>
       <r>    62.5092     1.5397   106.3267 </r>
       <r>    62.5543     5.0263   106.5531 </r>
       <r>    62.5993     4.2155   106.7431 </r>
       <r>    62.6444     0.8656   106.7821 </r>
       <r>    62.6894     0.0422   106.7840 </r>
       <r>    62.7345     0.0006   106.7840 </r>
       <r>    62.7796     0.0132   106.7846 </r>
       <r>    62.8246     0.4146   106.8033 </r>
       <r>    62.8697     3.3946   106.9562 </r>
       <r>    62.9147     8.4094   107.3351 </r>
       <r>    62.9598     8.6481   107.7248 </r>
       <r>    63.0048     4.9060   107.9459 </r>
       <r>    63.0499     1.1293   107.9967 </r>
       <r>    63.0950     0.0714   108.0000 </r>
       <r>    63.1400     0.0010   108.0000 </r>
       <r>    63.1851     0.0000   108.0000 </r>
       <r>    63.2301     0.0002   108.0000 </r>
       <r>    63.2752     0.0256   108.0012 </r>
       <r>    63.3202     0.5780   108.0272 </r>
       <r>    63.3653     3.0133   108.1630 </r>
       <r>    63.4104     4.2060   108.3525 </r>
       <r>    63.4554     4.6057   108.5600 </r>
       <r>    63.5005     6.1223   108.8359 </r>
       <r>    63.5455     2.8729   108.9653 </r>
       <r>    63.5906     2.1722   109.0632 </r>
       <r>    63.6356     4.1456   109.2500 </r>
       <r>    63.6807     5.5039   109.4980 </r>
       <r>    63.7258     2.9577   109.6312 </r>
       <r>    63.7708     1.0686   109.6794 </r>
       <r>    63.8159     1.9852   109.7688 </r>
       <r>    63.8609     2.0998   109.8635 </r>
       <r>    63.9060     3.4980   110.0211 </r>
       <r>    63.9511     3.6328   110.1848 </r>
       <r>    63.9961     2.2023   110.2840 </r>
       <r>    64.0412     4.1764   110.4722 </r>
       <r>    64.0862     4.9589   110.6956 </r>
       <r>    64.1313     4.5312   110.8998 </r>
       <r>    64.1763     1.8470   110.9830 </r>
       <r>    64.2214     0.1952   110.9918 </r>
       <r>    64.2665     0.0047   110.9920 </r>
       <r>    64.3115     0.0000   110.9920 </r>
       <r>    64.3566     0.0000   110.9920 </r>
       <r>    64.4016     0.0000   110.9920 </r>
       <r>    64.4467     0.0000   110.9920 </r>
       <r>    64.4917     0.0039   110.9922 </r>
       <r>    64.5368     0.1364   110.9983 </r>
       <r>    64.5819     1.0786   111.0469 </r>
       <r>    64.6269     2.0241   111.1381 </r>
       <r>    64.6720     0.9410   111.1805 </r>
       <r>    64.7170     0.4470   111.2007 </r>
       <r>    64.7621     1.2231   111.2558 </r>
       <r>    64.8071     1.0298   111.3022 </r>
       <r>    64.8522     0.2082   111.3116 </r>
       <r>    64.8973     0.0097   111.3120 </r>
       <r>    64.9423     0.0002   111.3120 </r>
       <r>    64.9874     0.0105   111.3125 </r>
       <r>    65.0324     0.2739   111.3248 </r>
       <r>    65.0775     2.1531   111.4218 </r>
       <r>    65.1226     5.8078   111.6835 </r>
       <r>    65.1676     5.2095   111.9182 </r>
       <r>    65.2127     1.3658   111.9798 </r>
       <r>    65.2577     0.0920   111.9839 </r>
       <r>    65.3028     0.0014   111.9840 </r>
       <r>    65.3478     0.0005   111.9840 </r>
       <r>    65.3929     0.0427   111.9859 </r>
       <r>    65.4380     0.7873   112.0214 </r>
       <r>    65.4830     3.3574   112.1727 </r>
       <r>    65.5281     3.4765   112.3293 </r>
       <r>    65.5731     1.3053   112.3882 </r>
       <r>    65.6182     1.4104   112.4517 </r>
       <r>    65.6632     1.6992   112.5283 </r>
       <r>    65.7083     3.5363   112.6876 </r>
       <r>    65.7534     4.8362   112.9055 </r>
       <r>    65.7984     2.0461   112.9977 </r>
       <r>    65.8435     0.2228   113.0077 </r>
       <r>    65.8885     0.0056   113.0080 </r>
       <r>    65.9336     0.0000   113.0080 </r>
       <r>    65.9786     0.0003   113.0080 </r>
       <r>    66.0237     0.0297   113.0094 </r>
       <r>    66.0688     0.6336   113.0379 </r>
       <r>    66.1138     3.1658   113.1805 </r>
       <r>    66.1589     4.6348   113.3894 </r>
       <r>    66.2039     4.8705   113.6088 </r>
       <r>    66.2490     4.6617   113.8189 </r>
       <r>    66.2941     2.5966   113.9359 </r>
       <r>    66.3391     0.6633   113.9658 </r>
       <r>    66.3842     0.0489   113.9680 </r>
       <r>    66.4292     0.0137   113.9686 </r>
       <r>    66.4743     0.3764   113.9855 </r>
       <r>    66.5193     2.5265   114.0994 </r>
       <r>    66.5644     4.4271   114.2989 </r>
       <r>    66.6095     3.9055   114.4748 </r>
       <r>    66.6545     3.9411   114.6524 </r>
       <r>    66.6996     3.5341   114.8116 </r>
       <r>    66.7446     6.9864   115.1264 </r>
       <r>    66.7897     8.7764   115.5219 </r>
       <r>    66.8347     5.5480   115.7719 </r>
       <r>    66.8798     4.6778   115.9826 </r>
       <r>    66.9249     4.5008   116.1854 </r>
       <r>    66.9699     8.3091   116.5598 </r>
       <r>    67.0150     8.1899   116.9288 </r>
       <r>    67.0600     4.7671   117.1436 </r>
       <r>    67.1051     3.5492   117.3035 </r>
       <r>    67.1501     3.0684   117.4418 </r>
       <r>    67.1952     1.5898   117.5134 </r>
       <r>    67.2403     1.0949   117.5628 </r>
       <r>    67.2853     0.4279   117.5820 </r>
       <r>    67.3304     0.0425   117.5840 </r>
       <r>    67.3754     0.0012   117.5840 </r>
       <r>    67.4205     0.0250   117.5851 </r>
       <r>    67.4656     0.4946   117.6074 </r>
       <r>    67.5106     2.3955   117.7154 </r>
       <r>    67.5557     3.3979   117.8685 </r>
       <r>    67.6007     3.0369   118.0053 </r>
       <r>    67.6458     4.8066   118.2219 </r>
       <r>    67.6908     4.4971   118.4245 </r>
       <r>    67.7359     1.1599   118.4768 </r>
       <r>    67.7810     0.0708   118.4800 </r>
       <r>    67.8260     0.0010   118.4800 </r>
       <r>    67.8711     0.0000   118.4800 </r>
       <r>    67.9161     0.0000   118.4800 </r>
       <r>    67.9612     0.0065   118.4803 </r>
       <r>    68.0062     0.1898   118.4888 </r>
       <r>    68.0513     1.2692   118.5460 </r>
       <r>    68.0964     2.3559   118.6522 </r>
       <r>    68.1414     3.2493   118.7986 </r>
       <r>    68.1865     4.0412   118.9807 </r>
       <r>    68.2315     1.5631   119.0511 </r>
       <r>    68.2766     0.8945   119.0914 </r>
       <r>    68.3216     4.6242   119.2998 </r>
       <r>    68.3667     9.1038   119.7100 </r>
       <r>    68.4118     8.7671   120.1050 </r>
       <r>    68.4568     5.1641   120.3377 </r>
       <r>    68.5019     1.2849   120.3956 </r>
       <r>    68.5469     0.1646   120.4030 </r>
       <r>    68.5920     0.7165   120.4353 </r>
       <r>    68.6370     2.6828   120.5561 </r>
       <r>    68.6821     4.6044   120.7636 </r>
       <r>    68.7272     2.8176   120.8906 </r>
       <r>    68.7722     0.5242   120.9142 </r>
       <r>    68.8173     0.7566   120.9483 </r>
       <r>    68.8623     2.0228   121.0394 </r>
       <r>    68.9074     1.9773   121.1285 </r>
       <r>    68.9525     2.6410   121.2475 </r>
       <r>    68.9975     2.0627   121.3404 </r>
       <r>    69.0426     0.4145   121.3591 </r>
       <r>    69.0876     0.0192   121.3600 </r>
       <r>    69.1327     0.0002   121.3600 </r>
       <r>    69.1777     0.0005   121.3600 </r>
       <r>    69.2228     0.0342   121.3616 </r>
       <r>    69.2679     0.5178   121.3849 </r>
       <r>    69.3129     1.8277   121.4672 </r>
       <r>    69.3580     1.6142   121.5400 </r>
       <r>    69.4030     0.9912   121.5846 </r>
       <r>    69.4481     3.0807   121.7234 </r>
       <r>    69.4931     7.1458   122.0454 </r>
       <r>    69.5382     6.9420   122.3582 </r>
       <r>    69.5833     4.7698   122.5731 </r>
       <r>    69.6283     3.8487   122.7465 </r>
       <r>    69.6734     1.1085   122.7965 </r>
       <r>    69.7184     0.0797   122.8001 </r>
       <r>    69.7635     0.1512   122.8069 </r>
       <r>    69.8085     1.7417   122.8854 </r>
       <r>    69.8536     4.8414   123.1035 </r>
       <r>    69.8987     3.3652   123.2551 </r>
       <r>    69.9437     1.0192   123.3011 </r>
       <r>    69.9888     1.6475   123.3753 </r>
       <r>    70.0338     3.1643   123.5179 </r>
       <r>    70.0789     7.1879   123.8417 </r>
       <r>    70.1240    12.8507   124.4208 </r>
       <r>    70.1690     9.4575   124.8469 </r>
       <r>    70.2141     2.0543   124.9395 </r>
       <r>    70.2591     0.3772   124.9565 </r>
       <r>    70.3042     1.4533   125.0219 </r>
       <r>    70.3492     1.8923   125.1072 </r>
       <r>    70.3943     0.6027   125.1344 </r>
       <r>    70.4394     0.2604   125.1461 </r>
       <r>    70.4844     1.4357   125.2108 </r>
       <r>    70.5295     3.3240   125.3606 </r>
       <r>    70.5745     5.9278   125.6276 </r>
       <r>    70.6196     6.9558   125.9411 </r>
       <r>    70.6646     5.9038   126.2071 </r>
       <r>    70.7097     6.8585   126.5161 </r>
       <r>    70.7548     5.0175   126.7422 </r>
       <r>    70.7998     1.9325   126.8292 </r>
       <r>    70.8449     1.2261   126.8845 </r>
       <r>    70.8899     1.6629   126.9594 </r>
       <r>    70.9350     2.7363   127.0827 </r>
       <r>    70.9800     1.3692   127.1444 </r>
       <r>    71.0251     0.1641   127.1518 </r>
       <r>    71.0702     0.0045   127.1520 </r>
       <r>    71.1152     0.0000   127.1520 </r>
       <r>    71.1603     0.0000   127.1520 </r>
       <r>    71.2053     0.0000   127.1520 </r>
       <r>    71.2504     0.0000   127.1520 </r>
       <r>    71.2955     0.0015   127.1521 </r>
       <r>    71.3405     0.0719   127.1553 </r>
       <r>    71.3856     0.7801   127.1905 </r>
       <r>    71.4306     1.9921   127.2802 </r>
       <r>    71.4757     1.2290   127.3356 </r>
       <r>    71.5207     0.1814   127.3438 </r>
       <r>    71.5658     0.0463   127.3459 </r>
       <r>    71.6109     0.4140   127.3645 </r>
       <r>    71.6559     1.0034   127.4097 </r>
       <r>    71.7010     0.5877   127.4362 </r>
       <r>    71.7460     0.0819   127.4399 </r>
       <r>    71.7911     0.0026   127.4400 </r>
       <r>    71.8361     0.0001   127.4400 </r>
       <r>    71.8812     0.0096   127.4404 </r>
       <r>    71.9263     0.3106   127.4544 </r>
       <r>    71.9713     2.2938   127.5578 </r>
       <r>    72.0164     4.0261   127.7392 </r>
       <r>    72.0614     1.7077   127.8161 </r>
       <r>    72.1065     0.1708   127.8238 </r>
       <r>    72.1515     0.0038   127.8240 </r>
       <r>    72.1966     0.0000   127.8240 </r>
       <r>    72.2417     0.0000   127.8240 </r>
       <r>    72.2867     0.0034   127.8242 </r>
       <r>    72.3318     0.0633   127.8270 </r>
       <r>    72.3768     0.2763   127.8395 </r>
       <r>    72.4219     0.2897   127.8525 </r>
       <r>    72.4670     0.0731   127.8558 </r>
       <r>    72.5120     0.0043   127.8560 </r>
       <r>    72.5571     0.0059   127.8563 </r>
       <r>    72.6021     0.1365   127.8624 </r>
       <r>    72.6472     0.7329   127.8954 </r>
       <r>    72.6922     0.9419   127.9379 </r>
       <r>    72.7373     0.2919   127.9510 </r>
       <r>    72.7824     0.0211   127.9520 </r>
       <r>    72.8274     0.0003   127.9520 </r>
       <r>    72.8725     0.0000   127.9520 </r>
       <r>    72.9175     0.0000   127.9520 </r>
       <r>    72.9626     0.0000   127.9520 </r>
       <r>    73.0076     0.0000   127.9520 </r>
       <r>    73.0527     0.0000   127.9520 </r>
       <r>    73.0978     0.0000   127.9520 </r>
       <r>    73.1428     0.0000   127.9520 </r>
       <r>    73.1879     0.0000   127.9520 </r>
       <r>    73.2329     0.0000   127.9520 </r>
       <r>    73.2780     0.0000   127.9520 </r>
       <r>    73.3230     0.0000   127.9520 </r>
       <r>    73.3681     0.0000   127.9520 </r>
       <r>    73.4132     0.0000   127.9520 </r>
       <r>    73.4582     0.0000   127.9520 </r>
       <r>    73.5033     0.0000   127.9520 </r>
       <r>    73.5483     0.0000   127.9520 </r>
       <r>    73.5934     0.0000   127.9520 </r>
       <r>    73.6385     0.0000   127.9520 </r>
       <r>    73.6835     0.0000   127.9520 </r>
       <r>    73.7286     0.0000   127.9520 </r>
       <r>    73.7736     0.0000   127.9520 </r>
       <r>    73.8187     0.0000   127.9520 </r>
       <r>    73.8637     0.0000   127.9520 </r>
       <r>    73.9088     0.0000   127.9520 </r>
       <r>    73.9539     0.0000   127.9520 </r>
       <r>    73.9989     0.0000   127.9520 </r>
       <r>    74.0440     0.0000   127.9520 </r>
       <r>    74.0890     0.0000   127.9520 </r>
       <r>    74.1341     0.0000   127.9520 </r>
       <r>    74.1791     0.0000   127.9520 </r>
       <r>    74.2242     0.0000   127.9520 </r>
       <r>    74.2693     0.0000   127.9520 </r>
       <r>    74.3143     0.0000   127.9520 </r>
       <r>    74.3594     0.0000   127.9520 </r>
       <r>    74.4044     0.0000   127.9520 </r>
       <r>    74.4495     0.0000   127.9520 </r>
       <r>    74.4945     0.0000   127.9520 </r>
       <r>    74.5396     0.0000   127.9520 </r>
       <r>    74.5847     0.0000   127.9520 </r>
       <r>    74.6297     0.0000   127.9520 </r>
       <r>    74.6748     0.0000   127.9520 </r>
       <r>    74.7198     0.0000   127.9520 </r>
       <r>    74.7649     0.0000   127.9520 </r>
       <r>    74.8100     0.0000   127.9520 </r>
       <r>    74.8550     0.0000   127.9520 </r>
       <r>    74.9001     0.0000   127.9520 </r>
       <r>    74.9451     0.0000   127.9520 </r>
       <r>    74.9902     0.0000   127.9520 </r>
       <r>    75.0352     0.0000   127.9520 </r>
       <r>    75.0803     0.0000   127.9520 </r>
       <r>    75.1254     0.0000   127.9520 </r>
       <r>    75.1704     0.0000   127.9520 </r>
       <r>    75.2155     0.0000   127.9520 </r>
       <r>    75.2605     0.0000   127.9520 </r>
       <r>    75.3056     0.0034   127.9522 </r>
       <r>    75.3506     0.0753   127.9555 </r>
       <r>    75.3957     0.3809   127.9727 </r>
       <r>    75.4408     0.4616   127.9935 </r>
       <r>    75.4858     0.1348   127.9996 </r>
       <r>    75.5309     0.0092   128.0000 </r>
       <r>    75.5759     0.0001   128.0000 </r>
       <r>    75.6210     0.0000   128.0000 </r>
       <r>    75.6660     0.0000   128.0000 </r>
       <r>    75.7111     0.0000   128.0000 </r>
       <r>    75.7562     0.0000   128.0000 </r>
       <r>    75.8012     0.0000   128.0000 </r>
       <r>    75.8463     0.0000   128.0000 </r>
       <r>    75.8913     0.0000   128.0000 </r>
       <r>    75.9364     0.0000   128.0000 </r>
       <r>    75.9814     0.0000   128.0000 </r>
       <r>    76.0265     0.0000   128.0000 </r>
       <r>    76.0716     0.0000   128.0000 </r>
       <r>    76.1166     0.0000   128.0000 </r>
       <r>    76.1617     0.0000   128.0000 </r>
       <r>    76.2067     0.0000   128.0000 </r>
       <r>    76.2518     0.0000   128.0000 </r>
       <r>    76.2969     0.0000   128.0000 </r>
       <r>    76.3419     0.0000   128.0000 </r>
       <r>    76.3870     0.0000   128.0000 </r>
       <r>    76.4320     0.0000   128.0000 </r>
       <r>    76.4771     0.0000   128.0000 </r>
       <r>    76.5221     0.0000   128.0000 </r>
       <r>    76.5672     0.0000   128.0000 </r>
       <r>    76.6123     0.0000   128.0000 </r>
       <r>    76.6573     0.0000   128.0000 </r>
       <r>    76.7024     0.0000   128.0000 </r>
       <r>    76.7474     0.0000   128.0000 </r>
       <r>    76.7925     0.0000   128.0000 </r>
       <r>    76.8375     0.0000   128.0000 </r>
       <r>    76.8826     0.0000   128.0000 </r>
       <r>    76.9277     0.0000   128.0000 </r>
       <r>    76.9727     0.0000   128.0000 </r>
       <r>    77.0178     0.0000   128.0000 </r>
       <r>    77.0628     0.0000   128.0000 </r>
       <r>    77.1079     0.0000   128.0000 </r>
       <r>    77.1529     0.0000   128.0000 </r>
       <r>    77.1980     0.0000   128.0000 </r>
       <r>    77.2431     0.0000   128.0000 </r>
       <r>    77.2881     0.0000   128.0000 </r>
       <r>    77.3332     0.0000   128.0000 </r>
       <r>    77.3782     0.0000   128.0000 </r>
       <r>    77.4233     0.0000   128.0000 </r>
       <r>    77.4684     0.0000   128.0000 </r>
       <r>    77.5134     0.0000   128.0000 </r>
       <r>    77.5585     0.0000   128.0000 </r>
       <r>    77.6035     0.0000   128.0000 </r>
       <r>    77.6486     0.0000   128.0000 </r>
       <r>    77.6936     0.0000   128.0000 </r>
       <r>    77.7387     0.0000   128.0000 </r>
       <r>    77.7838     0.0000   128.0000 </r>
       <r>    77.8288     0.0000   128.0000 </r>
       <r>    77.8739     0.0000   128.0000 </r>
       <r>    77.9189     0.0000   128.0000 </r>
       <r>    77.9640     0.0000   128.0000 </r>
       <r>    78.0090     0.0000   128.0000 </r>
       <r>    78.0541     0.0000   128.0000 </r>
       <r>    78.0992     0.0000   128.0000 </r>
       <r>    78.1442     0.0000   128.0000 </r>
       <r>    78.1893     0.0000   128.0000 </r>
       <r>    78.2343     0.0000   128.0000 </r>
       <r>    78.2794     0.0000   128.0000 </r>
       <r>    78.3244     0.0000   128.0000 </r>
       <r>    78.3695     0.0000   128.0000 </r>
       <r>    78.4146     0.0000   128.0000 </r>
       <r>    78.4596     0.0000   128.0000 </r>
       <r>    78.5047     0.0000   128.0000 </r>
       <r>    78.5497     0.0000   128.0000 </r>
       <r>    78.5948     0.0000   128.0000 </r>
       <r>    78.6399     0.0000   128.0000 </r>
       <r>    78.6849     0.0000   128.0000 </r>
       <r>    78.7300     0.0000   128.0000 </r>
       <r>    78.7750     0.0000   128.0000 </r>
       <r>    78.8201     0.0000   128.0000 </r>
       <r>    78.8651     0.0000   128.0000 </r>
       <r>    78.9102     0.0000   128.0000 </r>
       <r>    78.9553     0.0000   128.0000 </r>
       <r>    79.0003     0.0000   128.0000 </r>
       <r>    79.0454     0.0000   128.0000 </r>
       <r>    79.0904     0.0000   128.0000 </r>
       <r>    79.1355     0.0000   128.0000 </r>
       <r>    79.1805     0.0000   128.0000 </r>
       <r>    79.2256     0.0000   128.0000 </r>
       <r>    79.2707     0.0000   128.0000 </r>
       <r>    79.3157     0.0000   128.0000 </r>
       <r>    79.3608     0.0000   128.0000 </r>
       <r>    79.4058     0.0000   128.0000 </r>
       <r>    79.4509     0.0000   128.0000 </r>
       <r>    79.4959     0.0000   128.0000 </r>
      </set>
     </set>
    </array>
   </total>
  </dos>
 </calculation>
 <structure name="finalpos" >
  <crystal>
   <varray name="basis" >
    <v>       2.71500000       2.71500000       0.00000000 </v>
    <v>       0.00000000       2.71500000       2.71500000 </v>
    <v>       2.71500000       0.00000000       2.71500000 </v>
   </varray>
   <i name="volume">     40.02575175 </i>
   <varray name="rec_basis" >
    <v>       0.18416206       0.18416206      -0.18416206 </v>
    <v>      -0.18416206       0.18416206       0.18416206 </v>
    <v>       0.18416206      -0.18416206       0.18416206 </v>
   </varray>
  </crystal>
  <varray name="positions" >
   <v>       0.00000000       0.00000000       0.00000000 </v>
   <v>       0.25000000       0.25000000       0.25000000 </v>
  </varray>
 </structure>
</modeling>
