   1   1   0   0
  0.1663750E+03  0.5500000E-09  0.5500000E-09  0.5500000E-09  0.5000000E-15
  1.000000000000000E-004
  CAR 
 Silicon                                 
      3.68052835    -10.79788092  301     -3.10113498      1.00000000
    -10.798  0.0000E+00  0.0000E+00
    -10.750  0.0000E+00  0.0000E+00
    -10.701  0.0000E+00  0.0000E+00
    -10.653  0.0000E+00  0.0000E+00
    -10.605  0.0000E+00  0.0000E+00
    -10.557  0.0000E+00  0.0000E+00
    -10.508  0.0000E+00  0.0000E+00
    -10.460  0.0000E+00  0.0000E+00
    -10.412  0.0000E+00  0.0000E+00
    -10.364  0.2386E-16  0.1151E-17
    -10.315  0.5615E-14  0.2721E-15
    -10.267  0.7789E-12  0.3787E-13
    -10.219  0.6945E-10  0.3390E-11
    -10.170  0.4001E-08  0.1965E-09
    -10.122  0.1496E-06  0.7418E-08
    -10.074  0.3654E-05  0.1838E-06
    -10.026  0.5860E-04  0.3012E-05
     -9.977  0.6210E-03  0.3298E-04
     -9.929  0.4375E-02  0.2441E-03
     -9.881  0.2061E-01  0.1239E-02
     -9.833  0.6517E-01  0.4384E-02
     -9.784  0.1389E+00  0.1109E-01
     -9.736  0.2000E+00  0.2074E-01
     -9.688  0.1945E+00  0.3012E-01
     -9.640  0.1277E+00  0.3628E-01
     -9.591  0.5644E-01  0.3901E-01
     -9.543  0.1674E-01  0.3982E-01
     -9.495  0.3319E-02  0.3998E-01
     -9.447  0.4373E-03  0.4000E-01
     -9.398  0.3811E-04  0.4000E-01
     -9.350  0.2184E-05  0.4000E-01
     -9.302  0.8185E-07  0.4000E-01
     -9.254  0.1996E-08  0.4000E-01
     -9.205  0.3154E-10  0.4000E-01
     -9.157  0.3213E-12  0.4000E-01
     -9.109  0.2110E-14  0.4000E-01
     -9.060  0.6816E-17  0.4000E-01
     -9.012  0.0000E+00  0.4000E-01
     -8.964  0.0000E+00  0.4000E-01
     -8.916  0.0000E+00  0.4000E-01
     -8.867  0.0000E+00  0.4000E-01
     -8.819  0.0000E+00  0.4000E-01
     -8.771  0.0000E+00  0.4000E-01
     -8.723  0.0000E+00  0.4000E-01
     -8.674  0.0000E+00  0.4000E-01
     -8.626  0.0000E+00  0.4000E-01
     -8.578  0.0000E+00  0.4000E-01
     -8.530  0.0000E+00  0.4000E-01
     -8.481  0.0000E+00  0.4000E-01
     -8.433  0.0000E+00  0.4000E-01
     -8.385  0.0000E+00  0.4000E-01
     -8.337  0.0000E+00  0.4000E-01
     -8.288  0.0000E+00  0.4000E-01
     -8.240  0.0000E+00  0.4000E-01
     -8.192  0.0000E+00  0.4000E-01
     -8.144  0.0000E+00  0.4000E-01
     -8.095  0.0000E+00  0.4000E-01
     -8.047  0.0000E+00  0.4000E-01
     -7.999  0.0000E+00  0.4000E-01
     -7.950  0.0000E+00  0.4000E-01
     -7.902  0.0000E+00  0.4000E-01
     -7.854  0.0000E+00  0.4000E-01
     -7.806  0.0000E+00  0.4000E-01
     -7.757  0.0000E+00  0.4000E-01
     -7.709  0.0000E+00  0.4000E-01
     -7.661  0.0000E+00  0.4000E-01
     -7.613  0.0000E+00  0.4000E-01
     -7.564  0.0000E+00  0.4000E-01
     -7.516  0.0000E+00  0.4000E-01
     -7.468  0.0000E+00  0.4000E-01
     -7.420  0.0000E+00  0.4000E-01
     -7.371  0.0000E+00  0.4000E-01
     -7.323  0.0000E+00  0.4000E-01
     -7.275  0.0000E+00  0.4000E-01
     -7.227  0.0000E+00  0.4000E-01
     -7.178  0.0000E+00  0.4000E-01
     -7.130  0.0000E+00  0.4000E-01
     -7.082  0.0000E+00  0.4000E-01
     -7.033  0.0000E+00  0.4000E-01
     -6.985  0.0000E+00  0.4000E-01
     -6.937  0.0000E+00  0.4000E-01
     -6.889  0.0000E+00  0.4000E-01
     -6.840  0.0000E+00  0.4000E-01
     -6.792  0.0000E+00  0.4000E-01
     -6.744  0.0000E+00  0.4000E-01
     -6.696  0.0000E+00  0.4000E-01
     -6.647  0.0000E+00  0.4000E-01
     -6.599  0.0000E+00  0.4000E-01
     -6.551  0.0000E+00  0.4000E-01
     -6.503  0.0000E+00  0.4000E-01
     -6.454  0.0000E+00  0.4000E-01
     -6.406  0.0000E+00  0.4000E-01
     -6.358  0.0000E+00  0.4000E-01
     -6.310  0.0000E+00  0.4000E-01
     -6.261  0.0000E+00  0.4000E-01
     -6.213  0.0000E+00  0.4000E-01
     -6.165  0.0000E+00  0.4000E-01
     -6.117  0.0000E+00  0.4000E-01
     -6.068  0.0000E+00  0.4000E-01
     -6.020  0.0000E+00  0.4000E-01
     -5.972  0.0000E+00  0.4000E-01
     -5.923  0.0000E+00  0.4000E-01
     -5.875  0.0000E+00  0.4000E-01
     -5.827  0.0000E+00  0.4000E-01
     -5.779  0.0000E+00  0.4000E-01
     -5.730  0.0000E+00  0.4000E-01
     -5.682  0.0000E+00  0.4000E-01
     -5.634  0.0000E+00  0.4000E-01
     -5.586  0.0000E+00  0.4000E-01
     -5.537  0.0000E+00  0.4000E-01
     -5.489  0.0000E+00  0.4000E-01
     -5.441  0.0000E+00  0.4000E-01
     -5.393  0.0000E+00  0.4000E-01
     -5.344  0.0000E+00  0.4000E-01
     -5.296  0.0000E+00  0.4000E-01
     -5.248  0.0000E+00  0.4000E-01
     -5.200  0.0000E+00  0.4000E-01
     -5.151  0.0000E+00  0.4000E-01
     -5.103  0.0000E+00  0.4000E-01
     -5.055  0.0000E+00  0.4000E-01
     -5.007  0.0000E+00  0.4000E-01
     -4.958  0.0000E+00  0.4000E-01
     -4.910  0.0000E+00  0.4000E-01
     -4.862  0.0000E+00  0.4000E-01
     -4.813  0.0000E+00  0.4000E-01
     -4.765  0.0000E+00  0.4000E-01
     -4.717  0.0000E+00  0.4000E-01
     -4.669  0.0000E+00  0.4000E-01
     -4.620  0.0000E+00  0.4000E-01
     -4.572  0.0000E+00  0.4000E-01
     -4.524  0.0000E+00  0.4000E-01
     -4.476  0.0000E+00  0.4000E-01
     -4.427  0.0000E+00  0.4000E-01
     -4.379  0.0000E+00  0.4000E-01
     -4.331  0.0000E+00  0.4000E-01
     -4.283  0.0000E+00  0.4000E-01
     -4.234  0.0000E+00  0.4000E-01
     -4.186  0.0000E+00  0.4000E-01
     -4.138  0.0000E+00  0.4000E-01
     -4.090  0.0000E+00  0.4000E-01
     -4.041  0.0000E+00  0.4000E-01
     -3.993  0.0000E+00  0.4000E-01
     -3.945  0.0000E+00  0.4000E-01
     -3.897  0.2045E-16  0.4000E-01
     -3.848  0.4166E-14  0.4000E-01
     -3.800  0.5871E-12  0.4000E-01
     -3.752  0.5241E-10  0.4000E-01
     -3.703  0.2972E-08  0.4000E-01
     -3.655  0.1074E-06  0.4000E-01
     -3.607  0.2487E-05  0.4000E-01
     -3.559  0.3716E-04  0.4000E-01
     -3.510  0.3620E-03  0.4002E-01
     -3.462  0.2338E-02  0.4013E-01
     -3.414  0.1025E-01  0.4063E-01
     -3.366  0.3149E-01  0.4215E-01
     -3.317  0.7064E-01  0.4556E-01
     -3.269  0.1205E+00  0.5137E-01
     -3.221  0.1622E+00  0.5920E-01
     -3.173  0.1785E+00  0.6782E-01
     -3.124  0.1726E+00  0.7615E-01
     -3.076  0.1661E+00  0.8416E-01
     -3.028  0.1739E+00  0.9256E-01
     -2.980  0.1842E+00  0.1014E+00
     -2.931  0.1716E+00  0.1097E+00
     -2.883  0.1350E+00  0.1162E+00
     -2.835  0.1113E+00  0.1216E+00
     -2.786  0.1340E+00  0.1281E+00
     -2.738  0.1835E+00  0.1369E+00
     -2.690  0.2000E+00  0.1466E+00
     -2.642  0.1551E+00  0.1541E+00
     -2.593  0.8323E-01  0.1581E+00
     -2.545  0.3057E-01  0.1596E+00
     -2.497  0.7608E-02  0.1599E+00
     -2.449  0.1270E-02  0.1600E+00
     -2.400  0.1408E-03  0.1600E+00
     -2.352  0.1028E-04  0.1600E+00
     -2.304  0.4902E-06  0.1600E+00
     -2.256  0.1515E-07  0.1600E+00
     -2.207  0.3020E-09  0.1600E+00
     -2.159  0.3862E-11  0.1600E+00
     -2.111  0.3158E-13  0.1600E+00
     -2.063  0.1431E-15  0.1600E+00
     -2.014  0.0000E+00  0.1600E+00
     -1.966  0.0000E+00  0.1600E+00
     -1.918  0.0000E+00  0.1600E+00
     -1.870  0.0000E+00  0.1600E+00
     -1.821  0.0000E+00  0.1600E+00
     -1.773  0.0000E+00  0.1600E+00
     -1.725  0.0000E+00  0.1600E+00
     -1.676  0.0000E+00  0.1600E+00
     -1.628  0.0000E+00  0.1600E+00
     -1.580  0.0000E+00  0.1600E+00
     -1.532  0.0000E+00  0.1600E+00
     -1.483  0.0000E+00  0.1600E+00
     -1.435  0.0000E+00  0.1600E+00
     -1.387  0.0000E+00  0.1600E+00
     -1.339  0.0000E+00  0.1600E+00
     -1.290  0.0000E+00  0.1600E+00
     -1.242  0.0000E+00  0.1600E+00
     -1.194  0.0000E+00  0.1600E+00
     -1.146  0.0000E+00  0.1600E+00
     -1.097  0.0000E+00  0.1600E+00
     -1.049  0.0000E+00  0.1600E+00
     -1.001  0.0000E+00  0.1600E+00
     -0.953  0.0000E+00  0.1600E+00
     -0.904  0.0000E+00  0.1600E+00
     -0.856  0.0000E+00  0.1600E+00
     -0.808  0.0000E+00  0.1600E+00
     -0.760  0.0000E+00  0.1600E+00
     -0.711  0.0000E+00  0.1600E+00
     -0.663  0.0000E+00  0.1600E+00
     -0.615  0.0000E+00  0.1600E+00
     -0.566  0.0000E+00  0.1600E+00
     -0.518  0.0000E+00  0.1600E+00
     -0.470  0.7498E-16  0.1600E+00
     -0.422  0.1360E-13  0.1600E+00
     -0.373  0.1553E-11  0.1600E+00
     -0.325  0.1122E-09  0.1600E+00
     -0.277  0.5132E-08  0.1600E+00
     -0.229  0.1489E-06  0.1600E+00
     -0.180  0.2741E-05  0.1600E+00
     -0.132  0.3208E-04  0.1600E+00
     -0.084  0.2390E-03  0.1600E+00
     -0.036  0.1134E-02  0.1601E+00
      0.013  0.3435E-02  0.1602E+00
      0.061  0.6639E-02  0.1606E+00
      0.109  0.8197E-02  0.1609E+00
      0.157  0.6466E-02  0.1613E+00
      0.206  0.3259E-02  0.1614E+00
      0.254  0.1063E-02  0.1615E+00
      0.302  0.3714E-03  0.1615E+00
      0.350  0.1082E-02  0.1615E+00
      0.399  0.4528E-02  0.1618E+00
      0.447  0.1240E-01  0.1624E+00
      0.495  0.2170E-01  0.1634E+00
      0.544  0.2425E-01  0.1646E+00
      0.592  0.1732E-01  0.1654E+00
      0.640  0.7920E-02  0.1658E+00
      0.688  0.2524E-02  0.1659E+00
      0.737  0.1829E-02  0.1660E+00
      0.785  0.5621E-02  0.1663E+00
      0.833  0.1415E-01  0.1670E+00
      0.881  0.2313E-01  0.1681E+00
      0.930  0.2533E-01  0.1693E+00
      0.978  0.2207E-01  0.1704E+00
      1.026  0.2229E-01  0.1714E+00
      1.074  0.2685E-01  0.1727E+00
      1.123  0.2830E-01  0.1741E+00
      1.171  0.2639E-01  0.1754E+00
      1.219  0.2972E-01  0.1768E+00
      1.267  0.4340E-01  0.1789E+00
      1.316  0.6180E-01  0.1819E+00
      1.364  0.7245E-01  0.1854E+00
      1.412  0.7081E-01  0.1888E+00
      1.461  0.6557E-01  0.1920E+00
      1.509  0.5918E-01  0.1948E+00
      1.557  0.4400E-01  0.1969E+00
      1.605  0.2359E-01  0.1981E+00
      1.654  0.1035E-01  0.1986E+00
      1.702  0.7705E-02  0.1990E+00
      1.750  0.1119E-01  0.1995E+00
      1.798  0.1999E-01  0.2005E+00
      1.847  0.3913E-01  0.2023E+00
      1.895  0.6471E-01  0.2055E+00
      1.943  0.7642E-01  0.2092E+00
      1.991  0.6233E-01  0.2122E+00
      2.040  0.3669E-01  0.2139E+00
      2.088  0.2072E-01  0.2149E+00
      2.136  0.2371E-01  0.2161E+00
      2.184  0.4229E-01  0.2181E+00
      2.233  0.6366E-01  0.2212E+00
      2.281  0.7486E-01  0.2248E+00
      2.329  0.7427E-01  0.2284E+00
      2.377  0.6806E-01  0.2317E+00
      2.426  0.5835E-01  0.2345E+00
      2.474  0.4344E-01  0.2366E+00
      2.522  0.2575E-01  0.2378E+00
      2.571  0.1226E-01  0.2384E+00
      2.619  0.7190E-02  0.2388E+00
      2.667  0.7766E-02  0.2391E+00
      2.715  0.8187E-02  0.2395E+00
      2.764  0.5879E-02  0.2398E+00
      2.812  0.2716E-02  0.2400E+00
      2.860  0.8017E-03  0.2400E+00
      2.908  0.1509E-03  0.2400E+00
      2.957  0.1810E-04  0.2400E+00
      3.005  0.1381E-05  0.2400E+00
      3.053  0.6696E-07  0.2400E+00
      3.101  0.2060E-08  0.2400E+00
      3.150  0.4018E-10  0.2400E+00
      3.198  0.4961E-12  0.2400E+00
      3.246  0.3872E-14  0.2400E+00
      3.294  0.2045E-16  0.2400E+00
      3.343  0.0000E+00  0.2400E+00
      3.391  0.0000E+00  0.2400E+00
      3.439  0.0000E+00  0.2400E+00
      3.487  0.0000E+00  0.2400E+00
      3.536  0.0000E+00  0.2400E+00
      3.584  0.0000E+00  0.2400E+00
      3.632  0.0000E+00  0.2400E+00
      3.681  0.0000E+00  0.2400E+00
