    1    1   50    1
  0.1663750E+03  0.5500000E-09  0.5500000E-09  0.5500000E-09  0.5000000E-15
  1.000000000000000E-004
  CAR 
 Silicon                                 
      4     10      6
 
  0.8333333E-01  0.8333333E-01  0.8333333E-01  0.3703704E-01
      1         -9.797881   1.000000
      2         -2.801915   0.000012
      3         -2.773756   0.000002
      4         -2.773756   0.000002
      5          0.083636   0.000000
      6          2.368334   0.000000
 
  0.2500000E+00  0.8333333E-01  0.8333333E-01  0.1111111E+00
      1         -9.778079   1.000000
      2         -3.079315   0.378819
      3         -2.759062   0.000001
      4         -2.745137   0.000000
      5          0.507263   0.000000
      6          2.446096   0.000000
 
  0.4166667E+00  0.8333333E-01  0.8333333E-01  0.1111111E+00
      1         -9.757897   1.000000
      2         -3.321159   0.999070
      3         -2.728306   0.000000
      4         -2.715703   0.000000
      5          1.071942   0.000000
      6          1.936343   0.000000
 
  0.2500000E+00  0.2500000E+00  0.8333333E-01  0.1111111E+00
      1         -9.758795   1.000000
      2         -3.061887   0.289431
      3         -3.003803   0.084337
      4         -2.723356   0.000000
      5          0.884968   0.000000
      6          2.365168   0.000000
 
  0.4166667E+00  0.2500000E+00  0.8333333E-01  0.2222222E+00
      1         -9.739164   1.000000
      2         -3.267787   0.990784
      3         -2.985290   0.050679
      4         -2.694901   0.000000
      5          1.355269   0.000000
      6          1.900806   0.000000
 
  0.4166667E+00  0.4166667E+00  0.8333333E-01  0.1111111E+00
      1         -9.720105   1.000000
      2         -3.216203   0.948164
      3         -3.203998   0.927124
      4         -2.668046   0.000000
      5          1.282899   0.000000
      6          2.193302   0.000000
 
  0.2500000E+00  0.2500000E+00  0.2500000E+00  0.3703704E-01
      1         -9.740012   1.000000
      2         -3.039450   0.191507
      3         -2.965959   0.027959
      4         -2.965959   0.027959
      5          1.185002   0.000000
      6          2.680528   0.000000
 
  0.4166667E+00  0.2500000E+00  0.2500000E+00  0.1111111E+00
      1         -9.720885   1.000000
      2         -3.218177   0.951061
      3         -2.966936   0.028858
      4         -2.926604   0.006789
      5          1.496750   0.000000
      6          2.241649   0.000000
 
  0.4166667E+00  0.4166667E+00  0.2500000E+00  0.1111111E+00
      1         -9.702296   1.000000
      2         -3.170496   0.836682
      3         -3.159213   0.794275
      4         -2.907221   0.003050
      5          1.485210   0.000000
      6          2.284145   0.000000
 
  0.4166667E+00  0.4166667E+00  0.4166667E+00  0.3703704E-01
      1         -9.684189   1.000000
      2         -3.125767   0.636213
      3         -3.112222   0.562294
      4         -3.112222   0.562294
      5          1.741978   0.000000
      6          1.998604   0.000000
