 vasp.6.3.2 27Jun22 (build Dec 02 2024 22:47:12) complex                        
  
 executed on             LinuxIFC date 2024.12.05  18:56:33
 running on    1 total cores
 distrk:  each k-point on    1 cores,    1 groups
 distr:  one band on NCORE=   1 cores,    1 groups


--------------------------------------------------------------------------------------------------------


 INCAR:
   SYSTEM = Silicon
   ENCUT = 400
   ISMEAR = 0
   SIGMA = 0.1
   IBRION = 2
   NSW = 50
   EDIFF = 1E-5
   LWAVE = .FALSE.
   LCHARG = .FALSE.
   PREC = Accurate
   ALGO = Fast

 POTCAR:   PAW Si 02Apr1999                       
 POTCAR:   PAW Si 02Apr1999                       
   VRHFIN =Si: s2p2                                                                                 
   LEXCH  = CA                                                                                      
   EATOM  =   103.4338 eV,    7.6022 Ry                                                             
                                                                                                    
   TITEL  = PAW Si 02Apr1999                                                                        
   LULTRA =        F    use ultrasoft PP ?                                                          
   IUNSCR =        1    unscreen: 0-lin 1-nonlin 2-no                                               
   RPACOR =    1.500    partial core radius                                                         
   POMASS =   28.085; ZVAL   =    4.000    mass and valenz                                          
   RCORE  =    1.900    outmost cutoff radius                                                       
   RWIGS  =    2.480; RWIGS  =    1.312    wigner-seitz radius (au A)                               
   ENMAX  =  245.704; ENMIN  =  184.278 eV                                                          
   ICORE  =        2    local potential                                                             
   LCOR   =        T    correct aug charges                                                         
   LPAW   =        T    paw PP                                                                      
   EAUG   =  322.069                                                                                
   DEXC   =    -.006                                                                                
   RMAX   =    2.941    core radius for proj-oper                                                   
   RAUG   =    1.300    factor for augmentation sphere                                              
   RDEP   =    1.993    core radius for depl-charge                                                 
   QCUT   =   -4.250; QGAM   =    8.499    optimization parameters                                  
                                                                                                    
   Description                                                                                      
     l     E      TYP  RCUT    TYP  RCUT                                                            
     0   .000     23  1.900                                                                         
     0   .000     23  1.900                                                                         
     1   .000     23  1.900                                                                         
     1   .000     23  1.900                                                                         
     2   .000      7  1.900                                                                         
  local pseudopotential read in
  partial core-charges read in
  atomic valenz-charges read in
  non local Contribution for L=           0  read in
    real space projection operators read in
  non local Contribution for L=           0  read in
    real space projection operators read in
  non local Contribution for L=           1  read in
    real space projection operators read in
  non local Contribution for L=           1  read in
    real space projection operators read in
    PAW grid and wavefunctions read in
 
   number of l-projection  operators is LMAX  =           4
   number of lm-projection operators is LMMAX =           8
 
 PAW Si 02Apr1999                       :
 energy of atom  1       EATOM= -103.4338
 kinetic energy error for atom=    0.0011 (will be added to EATOM!!)
 
 
 POSCAR: Si
  positions in direct lattice
  No initial velocities read in
 exchange correlation table for  LEXCH =        2
   RHO(1)=    0.500       N(1)  =     2000
   RHO(2)=  100.500       N(2)  =     4000
 


--------------------------------------------------------------------------------------------------------


 ion  position               nearest neighbor table
   1  0.000  0.000  0.000-
 
  LATTYP: Found a simple cubic cell.
 ALAT       =     5.5000000000
  
  Lattice vectors:
  
 A1 = (   5.5000000000,   0.0000000000,   0.0000000000)
 A2 = (   0.0000000000,   5.5000000000,   0.0000000000)
 A3 = (   0.0000000000,   0.0000000000,   5.5000000000)


Analysis of symmetry for initial positions (statically):
=====================================================================
 Subroutine PRICEL returns:
 Original cell was already a primitive cell.
 

 Routine SETGRP: Setting up the symmetry group for a 
 simple cubic supercell.


 Subroutine GETGRP returns: Found 48 space group operations
 (whereof 48 operations were pure point group operations)
 out of a pool of 48 trial point group operations.


The static configuration has the point symmetry O_h .


Analysis of symmetry for dynamics (positions and initial velocities):
=====================================================================
 Subroutine PRICEL returns:
 Original cell was already a primitive cell.
 

 Routine SETGRP: Setting up the symmetry group for a 
 simple cubic supercell.


 Subroutine GETGRP returns: Found 48 space group operations
 (whereof 48 operations were pure point group operations)
 out of a pool of 48 trial point group operations.


The dynamic configuration has the point symmetry O_h .


 Subroutine INISYM returns: Found 48 space group operations
 (whereof 48 operations are pure point group operations),
 and found     1 'primitive' translations


----------------------------------------------------------------------------------------

                                     Primitive cell                                     

  volume of cell :     166.3750

  direct lattice vectors                    reciprocal lattice vectors
     5.500000000  0.000000000  0.000000000     0.181818182  0.000000000  0.000000000
     0.000000000  5.500000000  0.000000000     0.000000000  0.181818182  0.000000000
     0.000000000  0.000000000  5.500000000     0.000000000  0.000000000  0.181818182

  length of vectors
     5.500000000  5.500000000  5.500000000     0.181818182  0.181818182  0.181818182

  position of ions in fractional coordinates (direct lattice)
     0.000000000  0.000000000  0.000000000

  ion indices of the primitive-cell ions
   primitive index   ion index
                 1           1

----------------------------------------------------------------------------------------

 
 
 KPOINTS: KPOINTS                                 

Automatic generation of k-mesh.
 Grid dimensions read from file:
 generate k-points for:    6    6    6

 Generating k-lattice:

  Cartesian coordinates                     Fractional coordinates (reciprocal lattice)
     0.030303030  0.000000000  0.000000000     0.166666667  0.000000000  0.000000000
     0.000000000  0.030303030  0.000000000     0.000000000  0.166666667  0.000000000
     0.000000000  0.000000000  0.030303030     0.000000000  0.000000000  0.166666667

  Length of vectors
     0.030303030  0.030303030  0.030303030

  Shift w.r.t. Gamma in fractional coordinates (k-lattice)
     0.500000000  0.500000000  0.500000000

 
 Subroutine IBZKPT returns following result:
 ===========================================
 
 Found     10 irreducible k-points:
 
 Following reciprocal coordinates:
            Coordinates               Weight
  0.083333  0.083333  0.083333      8.000000
  0.250000  0.083333  0.083333     24.000000
  0.416667  0.083333  0.083333     24.000000
  0.250000  0.250000  0.083333     24.000000
  0.416667  0.250000  0.083333     48.000000
  0.416667  0.416667  0.083333     24.000000
  0.250000  0.250000  0.250000      8.000000
  0.416667  0.250000  0.250000     24.000000
  0.416667  0.416667  0.250000     24.000000
  0.416667  0.416667  0.416667      8.000000
 
 Following cartesian coordinates:
            Coordinates               Weight
  0.083333  0.083333  0.083333      8.000000
  0.250000  0.083333  0.083333     24.000000
  0.416667  0.083333  0.083333     24.000000
  0.250000  0.250000  0.083333     24.000000
  0.416667  0.250000  0.083333     48.000000
  0.416667  0.416667  0.083333     24.000000
  0.250000  0.250000  0.250000      8.000000
  0.416667  0.250000  0.250000     24.000000
  0.416667  0.416667  0.250000     24.000000
  0.416667  0.416667  0.416667      8.000000
 


--------------------------------------------------------------------------------------------------------




 Dimension of arrays:
   k-points           NKPTS =     10   k-points in BZ     NKDIM =     10   number of bands    NBANDS=      6
   number of dos      NEDOS =    301   number of ions     NIONS =      1
   non local maximal  LDIM  =      4   non local SUM 2l+1 LMDIM =      8
   total plane-waves  NPLWV =  46656
   max r-space proj   IRMAX =      1   max aug-charges    IRDMAX=   9574
   dimension x,y,z NGX =    36 NGY =   36 NGZ =   36
   dimension x,y,z NGXF=    72 NGYF=   72 NGZF=   72
   support grid    NGXF=    72 NGYF=   72 NGZF=   72
   ions per type =               1
   NGX,Y,Z   is equivalent  to a cutoff of  10.88, 10.88, 10.88 a.u.
   NGXF,Y,Z  is equivalent  to a cutoff of  21.76, 21.76, 21.76 a.u.

 SYSTEM =  Silicon                                 
 POSCAR =  Si                                      

 Startparameter for this run:
   NWRITE =      2    write-flag & timer
   PREC   = accura    normal or accurate (medium, high low for compatibility)
   ISTART =      0    job   : 0-new  1-cont  2-samecut
   ICHARG =      2    charge: 1-file 2-atom 10-const
   ISPIN  =      1    spin polarized calculation?
   LNONCOLLINEAR =      F non collinear calculations
   LSORBIT =      F    spin-orbit coupling
   INIWAV =      1    electr: 0-lowe 1-rand  2-diag
   LASPH  =      F    aspherical Exc in radial PAW
 Electronic Relaxation 1
   ENCUT  =  400.0 eV  29.40 Ry    5.42 a.u.   8.97  8.97  8.97*2*pi/ulx,y,z
   ENINI  =  400.0     initial cutoff
   ENAUG  =  322.1 eV  augmentation charge cutoff
   NELM   =     60;   NELMIN=  2; NELMDL=  0     # of ELM steps 
   EDIFF  = 0.1E-04   stopping-criterion for ELM
   LREAL  =      F    real-space projection
   NLSPLINE    = F    spline interpolate recip. space projectors
   LCOMPAT=      F    compatible to vasp.4.4
   GGA_COMPAT  = T    GGA compatible to vasp.4.4-vasp.4.6
   LMAXPAW     = -100 max onsite density
   LMAXMIX     =    2 max onsite mixed and CHGCAR
   VOSKOWN=      0    Vosko Wilk Nusair interpolation
   ROPT   =    0.00000
 Ionic relaxation
   EDIFFG = 0.1E-03   stopping-criterion for IOM
   NSW    =     50    number of steps for IOM
   NBLOCK =      1;   KBLOCK =     50    inner block; outer block 
   IBRION =      2    ionic relax: 0-MD 1-quasi-New 2-CG
   NFREE  =      1    steps in history (QN), initial steepest desc. (CG)
   ISIF   =      2    stress and relaxation
   IWAVPR =     11    prediction:  0-non 1-charg 2-wave 3-comb
   ISYM   =      2    0-nonsym 1-usesym 2-fastsym
   LCORR  =      T    Harris-Foulkes like correction to forces

   POTIM  = 0.5000    time-step for ionic-motion
   TEIN   =    0.0    initial temperature
   TEBEG  =    0.0;   TEEND  =   0.0 temperature during run
   SMASS  =  -3.00    Nose mass-parameter (am)
   estimated Nose-frequenzy (Omega)   =  0.10E-29 period in steps = 0.13E+47 mass=  -0.691E-27a.u.
   SCALEE = 1.0000    scale energy and forces
   NPACO  =    256;   APACO  = 10.0  distance and # of slots for P.C.
   PSTRESS=    0.0 pullay stress

  Mass of Ions in am
   POMASS =  28.09
  Ionic Valenz
   ZVAL   =   4.00
  Atomic Wigner-Seitz radii
   RWIGS  =  -1.00
  virtual crystal weights 
   VCA    =   1.00
   NELECT =       4.0000    total number of electrons
   NUPDOWN=      -1.0000    fix difference up-down

 DOS related values:
   EMIN   =  10.00;   EMAX   =-10.00  energy-range for DOS
   EFERMI =   0.00
   ISMEAR =     0;   SIGMA  =   0.10  broadening in eV -4-tet -1-fermi 0-gaus

 Electronic relaxation 2 (details)
   IALGO  =     68    algorithm
   LDIAG  =      T    sub-space diagonalisation (order eigenvalues)
   LSUBROT=      F    optimize rotation matrix (better conditioning)
   TURBO    =      0    0=normal 1=particle mesh
   IRESTART =      0    0=no restart 2=restart with 2 vectors
   NREBOOT  =      0    no. of reboots
   NMIN     =      0    reboot dimension
   EREF     =   0.00    reference energy to select bands
   IMIX   =      4    mixing-type and parameters
     AMIX     =   0.40;   BMIX     =  1.00
     AMIX_MAG =   1.60;   BMIX_MAG =  1.00
     AMIN     =   0.10
     WC   =   100.;   INIMIX=   1;  MIXPRE=   1;  MAXMIX= -45

 Intra band minimization:
   WEIMIN = 0.0010     energy-eigenvalue tresh-hold
   EBREAK =  0.42E-06  absolut break condition
   DEPER  =   0.30     relativ break condition  

   TIME   =   0.40     timestep for ELM

  volume/ion in A,a.u.               =     166.38      1122.75
  Fermi-wavevector in a.u.,A,eV,Ry     =   0.472497  0.892889  3.037544  0.223253
  Thomas-Fermi vector in A             =   1.465728
 
 Write flags
   LWAVE        =      F    write WAVECAR
   LDOWNSAMPLE  =      F    k-point downsampling of WAVECAR
   LCHARG       =      F    write CHGCAR
   LVTOT        =      F    write LOCPOT, total local potential
   LVHAR        =      F    write LOCPOT, Hartree potential only
   LELF         =      F    write electronic localiz. function (ELF)
   LORBIT       =      0    0 simple, 1 ext, 2 COOP (PROOUT), +10 PAW based schemes


 Dipole corrections
   LMONO  =      F    monopole corrections only (constant potential shift)
   LDIPOL =      F    correct potential (dipole corrections)
   IDIPOL =      0    1-x, 2-y, 3-z, 4-all directions 
   EPSILON=  1.0000000 bulk dielectric constant

 Exchange correlation treatment:
   GGA     =    --    GGA type
   LEXCH   =     2    internal setting for exchange type
   LIBXC   =     F    Libxc                    
   VOSKOWN =     0    Vosko Wilk Nusair interpolation
   LHFCALC =     F    Hartree Fock is set to
   LHFONE  =     F    Hartree Fock one center treatment
   AEXX    =    0.0000 exact exchange contribution

 Linear response parameters
   LEPSILON=     F    determine dielectric tensor
   LRPA    =     F    only Hartree local field effects (RPA)
   LNABLA  =     F    use nabla operator in PAW spheres
   LVEL    =     F    velocity operator in full k-point grid
   CSHIFT  =0.1000    complex shift for real part using Kramers Kronig
   OMEGAMAX=  -1.0    maximum frequency
   DEG_THRESHOLD= 0.2000000E-02 threshold for treating states as degnerate
   RTIME   =   -0.100 relaxation time in fs
  (WPLASMAI=    0.000 imaginary part of plasma frequency in eV, 0.658/RTIME)
   DFIELD  = 0.0000000 0.0000000 0.0000000 field for delta impulse in time
 
  Optional k-point grid parameters
   LKPOINTS_OPT  =     F    use optional k-point grid
   KPOINTS_OPT_MODE=     1    mode for optional k-point grid
 
 Orbital magnetization related:
   ORBITALMAG=     F  switch on orbital magnetization
   LCHIMAG   =     F  perturbation theory with respect to B field
   DQ        =  0.001000  dq finite difference perturbation B field
   LLRAUG    =     F  two centre corrections for induced B field



--------------------------------------------------------------------------------------------------------


 conjugate gradient relaxation of ions
 charge density and potential will be updated during run
 non-spin polarized calculation
 RMM-DIIS sequential band-by-band and
  variant of blocked Davidson during initial phase
 perform sub-space diagonalisation
    before iterative eigenvector-optimisation
 modified Broyden-mixing scheme, WC =      100.0
 initial mixing is a Kerker type mixing with AMIX =  0.4000 and BMIX =      1.0000
 Hartree-type preconditioning will be used
 using additional bands            4
 reciprocal scheme for non local part
 use partial core corrections
 calculate Harris-corrections to forces 
   (improved forces if not selfconsistent)
 use of overlap-Matrix (Vanderbilt PP)
 Gauss-broadening in eV      SIGMA  =   0.10


--------------------------------------------------------------------------------------------------------


  energy-cutoff  :      400.00
  volume of cell :      166.38
      direct lattice vectors                 reciprocal lattice vectors
     5.500000000  0.000000000  0.000000000     0.181818182  0.000000000  0.000000000
     0.000000000  5.500000000  0.000000000     0.000000000  0.181818182  0.000000000
     0.000000000  0.000000000  5.500000000     0.000000000  0.000000000  0.181818182

  length of vectors
     5.500000000  5.500000000  5.500000000     0.181818182  0.181818182  0.181818182


 
 k-points in units of 2pi/SCALE and weight: KPOINTS                                 
   0.08333333  0.08333333  0.08333333       0.037
   0.25000000  0.08333333  0.08333333       0.111
   0.41666667  0.08333333  0.08333333       0.111
   0.25000000  0.25000000  0.08333333       0.111
   0.41666667  0.25000000  0.08333333       0.222
   0.41666667  0.41666667  0.08333333       0.111
   0.25000000  0.25000000  0.25000000       0.037
   0.41666667  0.25000000  0.25000000       0.111
   0.41666667  0.41666667  0.25000000       0.111
   0.41666667  0.41666667  0.41666667       0.037
 
 k-points in reciprocal lattice and weights: KPOINTS                                 
   0.08333333  0.08333333  0.08333333       0.037
   0.25000000  0.08333333  0.08333333       0.111
   0.41666667  0.08333333  0.08333333       0.111
   0.25000000  0.25000000  0.08333333       0.111
   0.41666667  0.25000000  0.08333333       0.222
   0.41666667  0.41666667  0.08333333       0.111
   0.25000000  0.25000000  0.25000000       0.037
   0.41666667  0.25000000  0.25000000       0.111
   0.41666667  0.41666667  0.25000000       0.111
   0.41666667  0.41666667  0.41666667       0.037
 
 position of ions in fractional coordinates (direct lattice) 
   0.00000000  0.00000000  0.00000000
 
 position of ions in cartesian coordinates  (Angst):
   0.00000000  0.00000000  0.00000000
 


--------------------------------------------------------------------------------------------------------


 k-point   1 :   0.0833 0.0833 0.0833  plane waves:    3002
 k-point   2 :   0.2500 0.0833 0.0833  plane waves:    3019
 k-point   3 :   0.4167 0.0833 0.0833  plane waves:    3009
 k-point   4 :   0.2500 0.2500 0.0833  plane waves:    3017
 k-point   5 :   0.4167 0.2500 0.0833  plane waves:    3023
 k-point   6 :   0.4167 0.4167 0.0833  plane waves:    3032
 k-point   7 :   0.2500 0.2500 0.2500  plane waves:    3031
 k-point   8 :   0.4167 0.2500 0.2500  plane waves:    3023
 k-point   9 :   0.4167 0.4167 0.2500  plane waves:    3038
 k-point  10 :   0.4167 0.4167 0.4167  plane waves:    3040

 maximum and minimum number of plane-waves per node :      3040     3002

 maximum number of plane-waves:      3040
 maximum index in each direction: 
   IXMAX=    8   IYMAX=    8   IZMAX=    8
   IXMIN=   -9   IYMIN=   -9   IZMIN=   -9


 serial   3D FFT for wavefunctions
 parallel 3D FFT for charge:
    minimum data exchange during FFTs selected (reduces bandwidth)


 total amount of memory used by VASP MPI-rank0    68117. kBytes
=======================================================================

   base      :      30000. kBytes
   nonl-proj :       1994. kBytes
   fftplans  :      13060. kBytes
   grid      :      20134. kBytes
   one-center:          3. kBytes
   wavefun   :       2926. kBytes
 
     INWAV:  cpu time      0.0000: real time      0.0007
 Broyden mixing: mesh for mixing (old mesh)
   NGX = 17   NGY = 17   NGZ = 17
  (NGX  = 72   NGY  = 72   NGZ  = 72)
  gives a total of   4913 points

 initial charge density was supplied:
 charge density of overlapping atoms calculated
 number of electron       4.0000000 magnetization 
 keeping initial charge density in first step


--------------------------------------------------------------------------------------------------------


 Maximum index for augmentation-charges         9045 (set IRDMAX)


--------------------------------------------------------------------------------------------------------


 First call to EWALD:  gamma=   0.322
 Maximum number of real-space cells 3x 3x 3
 Maximum number of reciprocal cells 3x 3x 3

    FEWALD:  cpu time      0.0007: real time      0.0032


--------------------------------------- Iteration      1(   1)  ---------------------------------------


    POTLOK:  cpu time      0.0315: real time      0.0691
    SETDIJ:  cpu time      0.0008: real time      0.0008
     EDDAV:  cpu time      0.0942: real time      0.0963
       DOS:  cpu time      0.0002: real time      0.0002
    --------------------------------------------
      LOOP:  cpu time      0.1266: real time      0.1663

 eigenvalue-minimisations  :   120
 total energy-change (2. order) : 0.3972118E+01  (-0.8452815E+02)
 number of electron       4.0000000 magnetization 
 augmentation part        4.0000000 magnetization 

 Free energy of the ion-electron system (eV)
  ---------------------------------------------------
  alpha Z        PSCENC =         0.14248216
  Ewald energy   TEWEN  =       -59.42760729
  -Hartree energ DENC   =       -26.47254173
  -exchange      EXHF   =         0.00000000
  -V(xc)+E(xc)   XCENC  =       -10.87929616
  PAW double counting   =        33.55897582      -16.14130609
  entropy T*S    EENTRO =        -0.00635845
  eigenvalues    EBANDS =       -20.23488713
  atomic energy  EATOM  =       103.43265638
  Solvation  Ediel_sol  =         0.00000000
  ---------------------------------------------------
  free energy    TOTEN  =         3.97211751 eV

  energy without entropy =        3.97847596  energy(sigma->0) =        3.97529674


--------------------------------------------------------------------------------------------------------




--------------------------------------- Iteration      1(   2)  ---------------------------------------


     EDDAV:  cpu time      0.1174: real time      0.1201
       DOS:  cpu time      0.0001: real time      0.0001
    --------------------------------------------
      LOOP:  cpu time      0.1176: real time      0.1202

 eigenvalue-minimisations  :   186
 total energy-change (2. order) :-0.4279419E+01  (-0.4208722E+01)
 number of electron       4.0000000 magnetization 
 augmentation part        4.0000000 magnetization 

 Free energy of the ion-electron system (eV)
  ---------------------------------------------------
  alpha Z        PSCENC =         0.14248216
  Ewald energy   TEWEN  =       -59.42760729
  -Hartree energ DENC   =       -26.47254173
  -exchange      EXHF   =         0.00000000
  -V(xc)+E(xc)   XCENC  =       -10.87929616
  PAW double counting   =        33.55897582      -16.14130609
  entropy T*S    EENTRO =        -0.02551542
  eigenvalues    EBANDS =       -24.49514927
  atomic energy  EATOM  =       103.43265638
  Solvation  Ediel_sol  =         0.00000000
  ---------------------------------------------------
  free energy    TOTEN  =        -0.30730160 eV

  energy without entropy =       -0.28178618  energy(sigma->0) =       -0.29454389


--------------------------------------------------------------------------------------------------------




--------------------------------------- Iteration      1(   3)  ---------------------------------------


     EDDAV:  cpu time      0.0881: real time      0.0907
       DOS:  cpu time      0.0001: real time      0.0001
    --------------------------------------------
      LOOP:  cpu time      0.0882: real time      0.0909

 eigenvalue-minimisations  :   126
 total energy-change (2. order) :-0.2336334E+00  (-0.2105613E+00)
 number of electron       4.0000000 magnetization 
 augmentation part        4.0000000 magnetization 

 Free energy of the ion-electron system (eV)
  ---------------------------------------------------
  alpha Z        PSCENC =         0.14248216
  Ewald energy   TEWEN  =       -59.42760729
  -Hartree energ DENC   =       -26.47254173
  -exchange      EXHF   =         0.00000000
  -V(xc)+E(xc)   XCENC  =       -10.87929616
  PAW double counting   =        33.55897582      -16.14130609
  entropy T*S    EENTRO =        -0.04003713
  eigenvalues    EBANDS =       -24.71426100
  atomic energy  EATOM  =       103.43265638
  Solvation  Ediel_sol  =         0.00000000
  ---------------------------------------------------
  free energy    TOTEN  =        -0.54093504 eV

  energy without entropy =       -0.50089790  energy(sigma->0) =       -0.52091647


--------------------------------------------------------------------------------------------------------




--------------------------------------- Iteration      1(   4)  ---------------------------------------


     EDDAV:  cpu time      0.1237: real time      0.1444
       DOS:  cpu time      0.0001: real time      0.0001
    --------------------------------------------
      LOOP:  cpu time      0.1239: real time      0.1446

 eigenvalue-minimisations  :   198
 total energy-change (2. order) :-0.5957852E-02  (-0.5934122E-02)
 number of electron       4.0000000 magnetization 
 augmentation part        4.0000000 magnetization 

 Free energy of the ion-electron system (eV)
  ---------------------------------------------------
  alpha Z        PSCENC =         0.14248216
  Ewald energy   TEWEN  =       -59.42760729
  -Hartree energ DENC   =       -26.47254173
  -exchange      EXHF   =         0.00000000
  -V(xc)+E(xc)   XCENC  =       -10.87929616
  PAW double counting   =        33.55897582      -16.14130609
  entropy T*S    EENTRO =        -0.03984149
  eigenvalues    EBANDS =       -24.72041449
  atomic energy  EATOM  =       103.43265638
  Solvation  Ediel_sol  =         0.00000000
  ---------------------------------------------------
  free energy    TOTEN  =        -0.54689289 eV

  energy without entropy =       -0.50705140  energy(sigma->0) =       -0.52697214


--------------------------------------------------------------------------------------------------------




--------------------------------------- Iteration      1(   5)  ---------------------------------------


     EDDAV:  cpu time      0.1298: real time      0.1325
       DOS:  cpu time      0.0002: real time      0.0002
    CHARGE:  cpu time      0.0160: real time      0.0160
    MIXING:  cpu time      0.0047: real time      0.0047
    --------------------------------------------
      LOOP:  cpu time      0.1507: real time      0.1533

 eigenvalue-minimisations  :   204
 total energy-change (2. order) :-0.3009997E-04  (-0.3007847E-04)
 number of electron       4.0000000 magnetization 
 augmentation part       -0.2850694 magnetization 

 Broyden mixing:
  rms(total) = 0.33462E-01    rms(broyden)= 0.33449E-01
  rms(prec ) = 0.10889E+00
  weight for this iteration     100.00

 Free energy of the ion-electron system (eV)
  ---------------------------------------------------
  alpha Z        PSCENC =         0.14248216
  Ewald energy   TEWEN  =       -59.42760729
  -Hartree energ DENC   =       -26.47254173
  -exchange      EXHF   =         0.00000000
  -V(xc)+E(xc)   XCENC  =       -10.87929616
  PAW double counting   =        33.55897582      -16.14130609
  entropy T*S    EENTRO =        -0.03984500
  eigenvalues    EBANDS =       -24.72044108
  atomic energy  EATOM  =       103.43265638
  Solvation  Ediel_sol  =         0.00000000
  ---------------------------------------------------
  free energy    TOTEN  =        -0.54692299 eV

  energy without entropy =       -0.50707799  energy(sigma->0) =       -0.52700049


--------------------------------------------------------------------------------------------------------




--------------------------------------- Iteration      1(   6)  ---------------------------------------


    POTLOK:  cpu time      0.0231: real time      0.0255
    SETDIJ:  cpu time      0.0006: real time      0.0006
    EDDIAG:  cpu time      0.0236: real time      0.0255
  RMM-DIIS:  cpu time      0.0856: real time      0.0856
    ORTHCH:  cpu time      0.0007: real time      0.0007
       DOS:  cpu time      0.0002: real time      0.0476
    CHARGE:  cpu time      0.0151: real time      0.0151
    MIXING:  cpu time      0.0033: real time      0.0033
    --------------------------------------------
      LOOP:  cpu time      0.1522: real time      0.2039

 eigenvalue-minimisations  :   120
 total energy-change (2. order) : 0.8221436E-02  (-0.7032308E-03)
 number of electron       4.0000000 magnetization 
 augmentation part       -0.2870174 magnetization 

 Broyden mixing:
  rms(total) = 0.19159E-01    rms(broyden)= 0.19158E-01
  rms(prec ) = 0.65853E-01
  weight for this iteration     100.00

 eigenvalues of (default mixing * dielectric matrix)
  average eigenvalue GAMMA=   2.1201
  2.1201

 Free energy of the ion-electron system (eV)
  ---------------------------------------------------
  alpha Z        PSCENC =         0.14248216
  Ewald energy   TEWEN  =       -59.42760729
  -Hartree energ DENC   =       -25.95918792
  -exchange      EXHF   =         0.00000000
  -V(xc)+E(xc)   XCENC  =       -10.93369652
  PAW double counting   =        33.08333952      -15.65074770
  entropy T*S    EENTRO =        -0.04052155
  eigenvalues    EBANDS =       -25.18541864
  atomic energy  EATOM  =       103.43265638
  Solvation  Ediel_sol  =         0.00000000
  ---------------------------------------------------
  free energy    TOTEN  =        -0.53870155 eV

  energy without entropy =       -0.49818001  energy(sigma->0) =       -0.51844078


--------------------------------------------------------------------------------------------------------




--------------------------------------- Iteration      1(   7)  ---------------------------------------


    POTLOK:  cpu time      0.0224: real time      0.0248
    SETDIJ:  cpu time      0.0006: real time      0.0006
    EDDIAG:  cpu time      0.0237: real time      0.0257
  RMM-DIIS:  cpu time      0.0858: real time      0.0858
    ORTHCH:  cpu time      0.0007: real time      0.0007
       DOS:  cpu time      0.0003: real time      0.0022
    CHARGE:  cpu time      0.0148: real time      0.0148
    MIXING:  cpu time      0.0034: real time      0.0034
    --------------------------------------------
      LOOP:  cpu time      0.1516: real time      0.1580

 eigenvalue-minimisations  :   120
 total energy-change (2. order) : 0.2679038E-02  (-0.1837666E-02)
 number of electron       4.0000000 magnetization 
 augmentation part       -0.2902839 magnetization 

 Broyden mixing:
  rms(total) = 0.62598E-02    rms(broyden)= 0.62594E-02
  rms(prec ) = 0.14290E-01
  weight for this iteration     100.00

 eigenvalues of (default mixing * dielectric matrix)
  average eigenvalue GAMMA=   2.8249
  2.8249  2.8249

 Free energy of the ion-electron system (eV)
  ---------------------------------------------------
  alpha Z        PSCENC =         0.14248216
  Ewald energy   TEWEN  =       -59.42760729
  -Hartree energ DENC   =       -25.21982119
  -exchange      EXHF   =         0.00000000
  -V(xc)+E(xc)   XCENC  =       -11.01387851
  PAW double counting   =        32.61735493      -15.16985912
  entropy T*S    EENTRO =        -0.04151873
  eigenvalues    EBANDS =       -25.85583116
  atomic energy  EATOM  =       103.43265638
  Solvation  Ediel_sol  =         0.00000000
  ---------------------------------------------------
  free energy    TOTEN  =        -0.53602252 eV

  energy without entropy =       -0.49450379  energy(sigma->0) =       -0.51526315


--------------------------------------------------------------------------------------------------------




--------------------------------------- Iteration      1(   8)  ---------------------------------------


    POTLOK:  cpu time      0.0216: real time      0.0241
    SETDIJ:  cpu time      0.0006: real time      0.0006
    EDDIAG:  cpu time      0.0229: real time      0.0229
  RMM-DIIS:  cpu time      0.0880: real time      0.0965
    ORTHCH:  cpu time      0.0007: real time      0.0007
       DOS:  cpu time      0.0003: real time      0.0058
    CHARGE:  cpu time      0.0147: real time      0.0147
    MIXING:  cpu time      0.0037: real time      0.0071
    --------------------------------------------
      LOOP:  cpu time      0.1525: real time      0.1725

 eigenvalue-minimisations  :   120
 total energy-change (2. order) :-0.1072421E-02  (-0.6747959E-04)
 number of electron       4.0000000 magnetization 
 augmentation part       -0.2901877 magnetization 

 Broyden mixing:
  rms(total) = 0.31363E-02    rms(broyden)= 0.31363E-02
  rms(prec ) = 0.83996E-02
  weight for this iteration     100.00

 eigenvalues of (default mixing * dielectric matrix)
  average eigenvalue GAMMA=   2.2366
  3.3942  1.6578  1.6578

 Free energy of the ion-electron system (eV)
  ---------------------------------------------------
  alpha Z        PSCENC =         0.14248216
  Ewald energy   TEWEN  =       -59.42760729
  -Hartree energ DENC   =       -25.25803026
  -exchange      EXHF   =         0.00000000
  -V(xc)+E(xc)   XCENC  =       -11.01695079
  PAW double counting   =        33.15069840      -15.71966882
  entropy T*S    EENTRO =        -0.04111461
  eigenvalues    EBANDS =       -25.79956010
  atomic energy  EATOM  =       103.43265638
  Solvation  Ediel_sol  =         0.00000000
  ---------------------------------------------------
  free energy    TOTEN  =        -0.53709494 eV

  energy without entropy =       -0.49598033  energy(sigma->0) =       -0.51653763


--------------------------------------------------------------------------------------------------------




--------------------------------------- Iteration      1(   9)  ---------------------------------------


    POTLOK:  cpu time      0.0221: real time      0.0246
    SETDIJ:  cpu time      0.0006: real time      0.0006
    EDDIAG:  cpu time      0.0234: real time      0.0254
  RMM-DIIS:  cpu time      0.0840: real time      0.0840
    ORTHCH:  cpu time      0.0007: real time      0.0007
       DOS:  cpu time      0.0002: real time      0.0022
    CHARGE:  cpu time      0.0145: real time      0.0145
    MIXING:  cpu time      0.0034: real time      0.0034
    --------------------------------------------
      LOOP:  cpu time      0.1489: real time      0.1554

 eigenvalue-minimisations  :   120
 total energy-change (2. order) : 0.9454512E-04  (-0.4592180E-04)
 number of electron       4.0000000 magnetization 
 augmentation part       -0.2907301 magnetization 

 Broyden mixing:
  rms(total) = 0.88781E-03    rms(broyden)= 0.88780E-03
  rms(prec ) = 0.26431E-02
  weight for this iteration     100.00

 eigenvalues of (default mixing * dielectric matrix)
  average eigenvalue GAMMA=   2.4953
  4.1612  2.4605  2.4605  0.8989

 Free energy of the ion-electron system (eV)
  ---------------------------------------------------
  alpha Z        PSCENC =         0.14248216
  Ewald energy   TEWEN  =       -59.42760729
  -Hartree energ DENC   =       -25.14906310
  -exchange      EXHF   =         0.00000000
  -V(xc)+E(xc)   XCENC  =       -11.02800853
  PAW double counting   =        32.97737347      -15.54105292
  entropy T*S    EENTRO =        -0.04134545
  eigenvalues    EBANDS =       -25.90243512
  atomic energy  EATOM  =       103.43265638
  Solvation  Ediel_sol  =         0.00000000
  ---------------------------------------------------
  free energy    TOTEN  =        -0.53700039 eV

  energy without entropy =       -0.49565495  energy(sigma->0) =       -0.51632767


--------------------------------------------------------------------------------------------------------




--------------------------------------- Iteration      1(  10)  ---------------------------------------


    POTLOK:  cpu time      0.0220: real time      0.0298
    SETDIJ:  cpu time      0.0007: real time      0.0012
    EDDIAG:  cpu time      0.0234: real time      0.0234
  RMM-DIIS:  cpu time      0.0870: real time      0.0870
    ORTHCH:  cpu time      0.0007: real time      0.0007
       DOS:  cpu time      0.0002: real time      0.0002
    CHARGE:  cpu time      0.0145: real time      0.0170
    MIXING:  cpu time      0.0033: real time      0.0033
    --------------------------------------------
      LOOP:  cpu time      0.1517: real time      0.1624

 eigenvalue-minimisations  :   120
 total energy-change (2. order) :-0.6122129E-04  (-0.7060510E-05)
 number of electron       4.0000000 magnetization 
 augmentation part       -0.2908069 magnetization 

 Broyden mixing:
  rms(total) = 0.48535E-03    rms(broyden)= 0.48534E-03
  rms(prec ) = 0.13238E-02
  weight for this iteration     100.00

 eigenvalues of (default mixing * dielectric matrix)
  average eigenvalue GAMMA=   2.2773
  3.9526  3.1679  2.0314  1.2341  1.0003

 Free energy of the ion-electron system (eV)
  ---------------------------------------------------
  alpha Z        PSCENC =         0.14248216
  Ewald energy   TEWEN  =       -59.42760729
  -Hartree energ DENC   =       -25.14939376
  -exchange      EXHF   =         0.00000000
  -V(xc)+E(xc)   XCENC  =       -11.02895179
  PAW double counting   =        32.93988356      -15.50277705
  entropy T*S    EENTRO =        -0.04137409
  eigenvalues    EBANDS =       -25.90197973
  atomic energy  EATOM  =       103.43265638
  Solvation  Ediel_sol  =         0.00000000
  ---------------------------------------------------
  free energy    TOTEN  =        -0.53706161 eV

  energy without entropy =       -0.49568753  energy(sigma->0) =       -0.51637457


--------------------------------------------------------------------------------------------------------




--------------------------------------- Iteration      1(  11)  ---------------------------------------


    POTLOK:  cpu time      0.0223: real time      0.0240
    SETDIJ:  cpu time      0.0007: real time      0.0007
    EDDIAG:  cpu time      0.0265: real time      0.0283
  RMM-DIIS:  cpu time      0.0671: real time      0.0671
    ORTHCH:  cpu time      0.0007: real time      0.0007
       DOS:  cpu time      0.0003: real time      0.0024
    --------------------------------------------
      LOOP:  cpu time      0.1177: real time      0.1232

 eigenvalue-minimisations  :    84
 total energy-change (2. order) : 0.1457948E-05  (-0.1023745E-05)
 number of electron       4.0000000 magnetization 
 augmentation part       -0.2908069 magnetization 

 Free energy of the ion-electron system (eV)
  ---------------------------------------------------
  alpha Z        PSCENC =         0.14248216
  Ewald energy   TEWEN  =       -59.42760729
  -Hartree energ DENC   =       -25.16456735
  -exchange      EXHF   =         0.00000000
  -V(xc)+E(xc)   XCENC  =       -11.02733511
  PAW double counting   =        32.96215884      -15.52572451
  entropy T*S    EENTRO =        -0.04134832
  eigenvalues    EBANDS =       -25.88777495
  atomic energy  EATOM  =       103.43265638
  Solvation  Ediel_sol  =         0.00000000
  ---------------------------------------------------
  free energy    TOTEN  =        -0.53706016 eV

  energy without entropy =       -0.49571183  energy(sigma->0) =       -0.51638599


--------------------------------------------------------------------------------------------------------




 average (electrostatic) potential at core
  the test charge radii are     0.9892
  (the norm of the test charge is              1.0000)
       1 -95.5226
 
 
 
 E-fermi :  -3.1011     XC(G=0):  -3.7116     alpha+bet : -1.4546

 Fermi energy:        -3.1011349829

 k-point     1 :       0.0833    0.0833    0.0833
  band No.  band energies     occupation 
      1      -9.7979      2.00000
      2      -2.8019      0.00002
      3      -2.7738      0.00000
      4      -2.7738      0.00000
      5       0.0836      0.00000
      6       2.3683      0.00000

 k-point     2 :       0.2500    0.0833    0.0833
  band No.  band energies     occupation 
      1      -9.7781      2.00000
      2      -3.0793      0.75764
      3      -2.7591      0.00000
      4      -2.7451      0.00000
      5       0.5073      0.00000
      6       2.4461      0.00000

 k-point     3 :       0.4167    0.0833    0.0833
  band No.  band energies     occupation 
      1      -9.7579      2.00000
      2      -3.3212      1.99814
      3      -2.7283      0.00000
      4      -2.7157      0.00000
      5       1.0719      0.00000
      6       1.9363      0.00000

 k-point     4 :       0.2500    0.2500    0.0833
  band No.  band energies     occupation 
      1      -9.7588      2.00000
      2      -3.0619      0.57886
      3      -3.0038      0.16867
      4      -2.7234      0.00000
      5       0.8850      0.00000
      6       2.3652      0.00000

 k-point     5 :       0.4167    0.2500    0.0833
  band No.  band energies     occupation 
      1      -9.7392      2.00000
      2      -3.2678      1.98157
      3      -2.9853      0.10136
      4      -2.6949      0.00000
      5       1.3553      0.00000
      6       1.9008      0.00000

 k-point     6 :       0.4167    0.4167    0.0833
  band No.  band energies     occupation 
      1      -9.7201      2.00000
      2      -3.2162      1.89633
      3      -3.2040      1.85425
      4      -2.6680      0.00000
      5       1.2829      0.00000
      6       2.1933      0.00000

 k-point     7 :       0.2500    0.2500    0.2500
  band No.  band energies     occupation 
      1      -9.7400      2.00000
      2      -3.0394      0.38301
      3      -2.9660      0.05592
      4      -2.9660      0.05592
      5       1.1850      0.00000
      6       2.6805      0.00000

 k-point     8 :       0.4167    0.2500    0.2500
  band No.  band energies     occupation 
      1      -9.7209      2.00000
      2      -3.2182      1.90212
      3      -2.9669      0.05772
      4      -2.9266      0.01358
      5       1.4968      0.00000
      6       2.2416      0.00000

 k-point     9 :       0.4167    0.4167    0.2500
  band No.  band energies     occupation 
      1      -9.7023      2.00000
      2      -3.1705      1.67336
      3      -3.1592      1.58855
      4      -2.9072      0.00610
      5       1.4852      0.00000
      6       2.2841      0.00000

 k-point    10 :       0.4167    0.4167    0.4167
  band No.  band energies     occupation 
      1      -9.6842      2.00000
      2      -3.1258      1.27243
      3      -3.1122      1.12459
      4      -3.1122      1.12459
      5       1.7420      0.00000
      6       1.9986      0.00000


--------------------------------------------------------------------------------------------------------


 soft charge-density along one line, spin component           1
         0         1         2         3         4         5         6         7         8         9
 total charge-density along one line
 
 pseudopotential strength for first ion, spin component:           1
 20.716   0.008  -0.000   0.000  -0.000   0.000  -0.000   0.000
  0.008   0.006   0.000  -0.000   0.000  -0.000   0.000  -0.000
 -0.000   0.000   4.533  -0.000   0.000   0.002   0.000  -0.000
  0.000  -0.000  -0.000   4.533  -0.000   0.000   0.002   0.000
 -0.000   0.000   0.000  -0.000   4.533  -0.000   0.000   0.002
  0.000  -0.000   0.002   0.000  -0.000   0.004  -0.000   0.000
 -0.000   0.000   0.000   0.002   0.000  -0.000   0.004  -0.000
  0.000  -0.000  -0.000   0.000   0.002   0.000  -0.000   0.004
 total augmentation occupancy for first ion, spin component:           1
  2.033   0.107   0.000   0.000   0.000   0.000   0.000   0.000
  0.107   0.009   0.000   0.000   0.000   0.000   0.000   0.000
  0.000   0.000   0.622   0.000   0.000   0.005   0.000  -0.000
  0.000   0.000   0.000   0.622   0.000  -0.000   0.005   0.000
  0.000   0.000   0.000  -0.000   0.622   0.000  -0.000   0.005
  0.000   0.000   0.005  -0.000  -0.000   0.000   0.000   0.000
  0.000   0.000  -0.000   0.005  -0.000   0.000   0.000   0.000
  0.000   0.000  -0.000   0.000   0.005   0.000   0.000   0.000


------------------------ aborting loop because EDIFF is reached ----------------------------------------


    CHARGE:  cpu time      0.0145: real time      0.0145
    FORLOC:  cpu time      0.0040: real time      0.0040
    FORNL :  cpu time      0.0057: real time      0.0057
    STRESS:  cpu time      0.0632: real time      0.0632
    FORCOR:  cpu time      0.0253: real time      0.0253
    FORHAR:  cpu time      0.0222: real time      0.0222
    MIXING:  cpu time      0.0036: real time      0.0036
    OFIELD:  cpu time      0.0000: real time      0.0000

  FORCE on cell =-STRESS in cart. coord.  units (eV):
  Direction    XX          YY          ZZ          XY          YZ          ZX
  --------------------------------------------------------------------------------------
  Alpha Z     0.14248     0.14248     0.14248
  Ewald     -19.80920   -19.80920   -19.80920    -0.00000     0.00000     0.00000
  Hartree     8.38889     8.38889     8.38889    -0.00000    -0.00000    -0.00000
  E(xc)     -10.67199   -10.67199   -10.67199    -0.00000     0.00000     0.00000
  Local     -35.97743   -35.97743   -35.97743     0.00000    -0.00000    -0.00000
  n-local    45.77295    40.63148    38.01481     0.38569     0.12305     0.21099
  augment    -7.54980    -7.54980    -7.54980     0.00000     0.00000     0.00000
  Kinetic    29.10130    22.05914    18.05939     0.51268     0.19114     0.27841
  Fock        0.00000     0.00000     0.00000     0.00000     0.00000     0.00000
  -------------------------------------------------------------------------------------
  Total      -0.93070    -0.93070    -0.93070    -0.00000    -0.00000     0.00000
  in kB      -8.96257    -8.96257    -8.96257    -0.00000    -0.00000     0.00000
  external pressure =       -8.96 kB  Pullay stress =        0.00 kB


 VOLUME and BASIS-vectors are now :
 -----------------------------------------------------------------------------
  energy-cutoff  :      400.00
  volume of cell :      166.38
      direct lattice vectors                 reciprocal lattice vectors
     5.500000000  0.000000000  0.000000000     0.181818182  0.000000000  0.000000000
     0.000000000  5.500000000  0.000000000     0.000000000  0.181818182  0.000000000
     0.000000000  0.000000000  5.500000000     0.000000000  0.000000000  0.181818182

  length of vectors
     5.500000000  5.500000000  5.500000000     0.181818182  0.181818182  0.181818182


 FORCES acting on ions
    electron-ion (+dipol)            ewald-force                    non-local-force                 convergence-correction
 -----------------------------------------------------------------------------------------------
   -.246E-14 -.150E-15 0.404E-14   0.367E-16 -.491E-16 -.461E-16   0.131E-22 0.132E-22 0.132E-22   -.309E-14 0.445E-14 0.367E-15
 -----------------------------------------------------------------------------------------------
   -.246E-14 -.150E-15 0.404E-14   0.367E-16 -.491E-16 -.461E-16   0.131E-22 0.132E-22 0.132E-22   -.309E-14 0.445E-14 0.367E-15
 
 
 POSITION                                       TOTAL-FORCE (eV/Angst)
 -----------------------------------------------------------------------------------
      0.00000      0.00000      0.00000         0.000000     -0.000000      0.000000
 -----------------------------------------------------------------------------------
    total drift:                               -0.000000      0.000000      0.000000


--------------------------------------------------------------------------------------------------------



  FREE ENERGIE OF THE ION-ELECTRON SYSTEM (eV)
  ---------------------------------------------------
  free  energy   TOTEN  =        -0.53706016 eV

  energy  without entropy=       -0.49571183  energy(sigma->0) =       -0.51638599
 


--------------------------------------------------------------------------------------------------------


    POTLOK:  cpu time      0.0226: real time      0.0252


--------------------------------------------------------------------------------------------------------




--------------------------------------------------------------------------------------------------------


  
 reached required accuracy - stopping structural energy minimisation
     LOOP+:  cpu time      1.6456: real time      1.8708
    4ORBIT:  cpu time      0.0000: real time      0.0000

 total amount of memory used by VASP MPI-rank0    68117. kBytes
=======================================================================

   base      :      30000. kBytes
   nonl-proj :       1994. kBytes
   fftplans  :      13060. kBytes
   grid      :      20134. kBytes
   one-center:          3. kBytes
   wavefun   :       2926. kBytes
 
  
  
 General timing and accounting informations for this job:
 ========================================================
  
                  Total CPU time used (sec):        2.113
                            User time (sec):        1.893
                          System time (sec):        0.220
                         Elapsed time (sec):        3.103
  
                   Maximum memory used (kb):      181864.
                   Average memory used (kb):          N/A
  
                          Minor page faults:        37031
                          Major page faults:            0
                 Voluntary context switches:         1377
