<?xml version="1.0" encoding="ISO-8859-1"?>
<modeling>
 <generator>
  <i name="program" type="string">vasp </i>
  <i name="version" type="string">6.3.2  </i>
  <i name="subversion" type="string">27Jun22 (build Dec 02 2024 22:47:12) complex                          parallel </i>
  <i name="platform" type="string">LinuxIFC </i>
  <i name="date" type="string">2024 12 05 </i>
  <i name="time" type="string">18:56:33 </i>
 </generator>
 <incar>
  <i type="string" name="SYSTEM">Silicon</i>
  <i type="string" name="PREC">Accurate</i>
  <i type="string" name="ALGO">Fast</i>
  <i type="int" name="IBRION">     2</i>
  <i name="EDIFF">      0.00001000</i>
  <i type="int" name="NSW">    50</i>
  <i name="ENCUT">    400.00000000</i>
  <i type="int" name="ISMEAR">     0</i>
  <i name="SIGMA">      0.10000000</i>
  <i type="logical" name="LWAVE"> F  </i>
  <i type="logical" name="LCHARG"> F  </i>
 </incar>
 <primitive_cell>
  <structure name="primitive_cell" >
   <crystal>
    <varray name="basis" >
     <v>       5.50000000       0.00000000       0.00000000 </v>
     <v>       0.00000000       5.50000000       0.00000000 </v>
     <v>       0.00000000       0.00000000       5.50000000 </v>
    </varray>
    <i name="volume">    166.37500000 </i>
    <varray name="rec_basis" >
     <v>       0.18181818       0.00000000       0.00000000 </v>
     <v>       0.00000000       0.18181818       0.00000000 </v>
     <v>       0.00000000       0.00000000       0.18181818 </v>
    </varray>
   </crystal>
   <varray name="positions" >
    <v>       0.00000000       0.00000000       0.00000000 </v>
   </varray>
  </structure>
  <varray name="primitive_index" >
   <v type="int" >        1 </v>
  </varray>
 </primitive_cell>
 <kpoints>
  <generation param="Monkhorst-Pack">
   <v type="int" name="divisions">       6        6        6 </v>
   <v name="usershift">      0.00000000       0.00000000       0.00000000 </v>
   <v name="genvec1">      0.16666667       0.00000000       0.00000000 </v>
   <v name="genvec2">      0.00000000       0.16666667       0.00000000 </v>
   <v name="genvec3">      0.00000000       0.00000000       0.16666667 </v>
   <v name="shift">      0.50000000       0.50000000       0.50000000 </v>
  </generation>
  <varray name="kpointlist" >
   <v>       0.08333333       0.08333333       0.08333333 </v>
   <v>       0.25000000       0.08333333       0.08333333 </v>
   <v>       0.41666667       0.08333333       0.08333333 </v>
   <v>       0.25000000       0.25000000       0.08333333 </v>
   <v>       0.41666667       0.25000000       0.08333333 </v>
   <v>       0.41666667       0.41666667       0.08333333 </v>
   <v>       0.25000000       0.25000000       0.25000000 </v>
   <v>       0.41666667       0.25000000       0.25000000 </v>
   <v>       0.41666667       0.41666667       0.25000000 </v>
   <v>       0.41666667       0.41666667       0.41666667 </v>
  </varray>
  <varray name="weights" >
   <v>       0.03703704 </v>
   <v>       0.11111111 </v>
   <v>       0.11111111 </v>
   <v>       0.11111111 </v>
   <v>       0.22222222 </v>
   <v>       0.11111111 </v>
   <v>       0.03703704 </v>
   <v>       0.11111111 </v>
   <v>       0.11111111 </v>
   <v>       0.03703704 </v>
  </varray>
 </kpoints>
 <parameters>
  <separator name="general" >
   <i type="string" name="SYSTEM">Silicon</i>
   <i type="logical" name="LCOMPAT"> F  </i>
  </separator>
  <separator name="electronic" >
   <i type="string" name="PREC">accura</i>
   <i name="ENMAX">    400.00000000</i>
   <i name="ENAUG">    322.06900000</i>
   <i name="EDIFF">      0.00001000</i>
   <i type="int" name="IALGO">    68</i>
   <i type="int" name="IWAVPR">    11</i>
   <i type="int" name="NBANDS">     6</i>
   <i type="int" name="NBANDSLOW">    -1</i>
   <i type="int" name="NBANDSHIGH">    -1</i>
   <i name="NELECT">      4.00000000</i>
   <i type="int" name="TURBO">     0</i>
   <i type="int" name="IRESTART">     0</i>
   <i type="int" name="NREBOOT">     0</i>
   <i type="int" name="NMIN">     0</i>
   <i name="EREF">      0.00000000</i>
   <separator name="electronic smearing" >
    <i type="int" name="ISMEAR">     0</i>
    <i name="SIGMA">      0.10000000</i>
    <i name="KSPACING">      0.50000000</i>
    <i type="logical" name="KGAMMA"> T  </i>
    <i type="logical" name="KBLOWUP"> T  </i>
   </separator>
   <separator name="electronic projectors" >
    <i type="logical" name="LREAL"> F  </i>
    <v name="ROPT">      0.00000000</v>
    <i type="int" name="LMAXPAW">  -100</i>
    <i type="int" name="LMAXMIX">     2</i>
    <i type="logical" name="NLSPLINE"> F  </i>
   </separator>
   <separator name="electronic startup" >
    <i type="int" name="ISTART">     0</i>
    <i type="int" name="ICHARG">     2</i>
    <i type="int" name="INIWAV">     1</i>
   </separator>
   <separator name="electronic spin" >
    <i type="int" name="ISPIN">     1</i>
    <i type="logical" name="LNONCOLLINEAR"> F  </i>
    <v name="MAGMOM">      1.00000000</v>
    <i name="NUPDOWN">     -1.00000000</i>
    <i type="logical" name="LSORBIT"> F  </i>
    <v name="SAXIS">      0.00000000      0.00000000      1.00000000</v>
    <i type="logical" name="LSPIRAL"> F  </i>
    <v name="QSPIRAL">      0.00000000      0.00000000      0.00000000</v>
    <i type="logical" name="LZEROZ"> F  </i>
   </separator>
   <separator name="electronic exchange-correlation" >
    <i type="logical" name="LASPH"> F  </i>
    <i type="logical" name="LMETAGGA"> F  </i>
   </separator>
   <separator name="electronic convergence" >
    <i type="int" name="NELM">    60</i>
    <i type="int" name="NELMDL">     0</i>
    <i type="int" name="NELMIN">     2</i>
    <i name="ENINI">    400.00000000</i>
    <separator name="electronic convergence detail" >
     <i type="logical" name="LDIAG"> T  </i>
     <i type="logical" name="LSUBROT"> F  </i>
     <i name="WEIMIN">      0.00100000</i>
     <i name="EBREAK">      0.00000042</i>
     <i name="DEPER">      0.30000000</i>
     <i type="int" name="NRMM">     4</i>
     <i name="TIME">      0.40000000</i>
    </separator>
   </separator>
   <separator name="electronic mixer" >
    <i name="AMIX">      0.40000000</i>
    <i name="BMIX">      1.00000000</i>
    <i name="AMIN">      0.10000000</i>
    <i name="AMIX_MAG">      1.60000000</i>
    <i name="BMIX_MAG">      1.00000000</i>
    <separator name="electronic mixer details" >
     <i type="int" name="IMIX">     4</i>
     <i type="logical" name="MIXFIRST"> F  </i>
     <i type="int" name="MAXMIX">   -45</i>
     <i name="WC">    100.00000000</i>
     <i type="int" name="INIMIX">     1</i>
     <i type="int" name="MIXPRE">     1</i>
     <i type="int" name="MREMOVE">     5</i>
    </separator>
   </separator>
   <separator name="electronic dipolcorrection" >
    <i type="logical" name="LDIPOL"> F  </i>
    <i type="logical" name="LMONO"> F  </i>
    <i type="int" name="IDIPOL">     0</i>
    <i name="EPSILON">      1.00000000</i>
    <v name="DIPOL">   -100.00000000   -100.00000000   -100.00000000</v>
    <i name="EFIELD">      0.00000000</i>
   </separator>
  </separator>
  <separator name="grids" >
   <i type="int" name="NGX">    36</i>
   <i type="int" name="NGY">    36</i>
   <i type="int" name="NGZ">    36</i>
   <i type="int" name="NGXF">    72</i>
   <i type="int" name="NGYF">    72</i>
   <i type="int" name="NGZF">    72</i>
   <i type="logical" name="ADDGRID"> F  </i>
  </separator>
  <separator name="ionic" >
   <i type="int" name="NSW">    50</i>
   <i type="int" name="IBRION">     2</i>
   <i type="int" name="MDALGO">     0</i>
   <i type="int" name="ISIF">     2</i>
   <i name="PSTRESS">      0.00000000</i>
   <i name="EDIFFG">      0.00010000</i>
   <i type="int" name="NFREE">     1</i>
   <i name="POTIM">      0.50000000</i>
   <i name="SMASS">     -3.00000000</i>
   <i name="SCALEE">      1.00000000</i>
  </separator>
  <separator name="ionic md" >
   <i name="TEBEG">      0.00010000</i>
   <i name="TEEND">      0.00010000</i>
   <i type="int" name="NBLOCK">     1</i>
   <i type="int" name="KBLOCK">    50</i>
   <i type="int" name="NPACO">   256</i>
   <i name="APACO">     10.00000000</i>
  </separator>
  <separator name="symmetry" >
   <i type="int" name="ISYM">     2</i>
   <i name="SYMPREC">      0.00001000</i>
  </separator>
  <separator name="dos" >
   <i type="int" name="LORBIT">     0</i>
   <v name="RWIGS">     -1.00000000</v>
   <i type="int" name="NEDOS">   301</i>
   <i name="EMIN">     10.00000000</i>
   <i name="EMAX">    -10.00000000</i>
   <i name="EFERMI">      0.00000000</i>
  </separator>
  <separator name="writing" >
   <i type="int" name="NWRITE">     2</i>
   <i type="logical" name="LWAVE"> F  </i>
   <i type="logical" name="LDOWNSAMPLE"> F  </i>
   <i type="logical" name="LCHARG"> F  </i>
   <i type="logical" name="LPARD"> F  </i>
   <i type="logical" name="LVTOT"> F  </i>
   <i type="logical" name="LVHAR"> F  </i>
   <i type="logical" name="LELF"> F  </i>
   <i type="logical" name="LOPTICS"> F  </i>
   <v name="STM">      0.00000000      0.00000000      0.00000000      0.00000000      0.00000000      0.00000000      0.00000000</v>
  </separator>
  <separator name="performance" >
   <i type="int" name="NPAR">     1</i>
   <i type="int" name="NSIM">     4</i>
   <i type="int" name="NBLK">    -1</i>
   <i type="logical" name="LPLANE"> T  </i>
   <i type="logical" name="LSCALAPACK"> T  </i>
   <i type="logical" name="LSCAAWARE"> F  </i>
   <i type="logical" name="LSCALU"> F  </i>
   <i type="logical" name="LASYNC"> F  </i>
   <i type="logical" name="LORBITALREAL"> F  </i>
  </separator>
  <separator name="miscellaneous" >
   <i type="int" name="IDIOT">     3</i>
   <i type="int" name="PHON_NSTRUCT">    -1</i>
   <i type="logical" name="LMUSIC"> F  </i>
   <v name="POMASS">     28.08500000</v>
   <v name="DARWINR">      0.00000000</v>
   <v name="DARWINV">      1.00000000</v>
   <i type="logical" name="LCORR"> T  </i>
  </separator>
  <i type="logical" name="GGA_COMPAT"> T  </i>
  <i type="logical" name="LBERRY"> F  </i>
  <i type="int" name="ICORELEVEL">     0</i>
  <i type="logical" name="LDAU"> F  </i>
  <i type="int" name="I_CONSTRAINED_M">     0</i>
  <separator name="electronic exchange-correlation" >
   <i type="string" name="GGA">--</i>
   <i type="int" name="VOSKOWN">     0</i>
   <i type="logical" name="LHFCALC"> F  </i>
   <i type="string" name="PRECFOCK"></i>
   <i type="logical" name="LSYMGRAD"> F  </i>
   <i type="logical" name="LHFONE"> F  </i>
   <i type="logical" name="LRHFCALC"> F  </i>
   <i type="logical" name="LTHOMAS"> F  </i>
   <i type="logical" name="LMODELHF"> F  </i>
   <i type="logical" name="LFOCKACE"> F  </i>
   <i name="ENCUT4O">     -1.00000000</i>
   <i type="int" name="EXXOEP">     0</i>
   <i type="int" name="FOURORBIT">     0</i>
   <i name="AEXX">      0.00000000</i>
   <i name="HFALPHA">      0.00000000</i>
   <i name="MCALPHA">      0.00000000</i>
   <i name="ALDAX">      1.00000000</i>
   <i name="AGGAX">      1.00000000</i>
   <i name="ALDAC">      1.00000000</i>
   <i name="AGGAC">      1.00000000</i>
   <i type="int" name="NKREDX">     1</i>
   <i type="int" name="NKREDY">     1</i>
   <i type="int" name="NKREDZ">     1</i>
   <i type="logical" name="SHIFTRED"> F  </i>
   <i type="logical" name="ODDONLY"> F  </i>
   <i type="logical" name="EVENONLY"> F  </i>
   <i type="int" name="LMAXFOCK">     0</i>
   <i type="int" name="NMAXFOCKAE">     0</i>
   <i type="logical" name="LFOCKAEDFT"> F  </i>
   <i name="HFSCREEN">      0.00000000</i>
   <i name="HFSCREENC">      0.00000000</i>
   <i type="int" name="NBANDSGWLOW">     0</i>
  </separator>
  <separator name="vdW DFT" >
   <i type="logical" name="LUSE_VDW"> F  </i>
   <i name="Zab_VDW">     -0.84910000</i>
   <i name="PARAM1">      0.12340000</i>
   <i name="PARAM2">      1.00000000</i>
   <i name="PARAM3">      0.00000000</i>
  </separator>
  <separator name="model GW" >
   <i type="int" name="MODEL_GW">     0</i>
   <i name="MODEL_EPS0">     99.82500000</i>
   <i name="MODEL_ALPHA">      1.00000000</i>
  </separator>
  <separator name="linear response parameters" >
   <i type="logical" name="LEPSILON"> F  </i>
   <i type="logical" name="LRPA"> F  </i>
   <i type="logical" name="LNABLA"> F  </i>
   <i type="logical" name="LVEL"> F  </i>
   <i name="CSHIFT">      0.10000000</i>
   <i name="OMEGAMAX">     -1.00000000</i>
   <i name="DEG_THRESHOLD">      0.00200000</i>
   <i name="RTIME">     -0.10000000</i>
   <i name="WPLASMAI">      0.00000000</i>
   <v name="DFIELD">      0.00000000      0.00000000      0.00000000</v>
   <v name="WPLASMA">      0.00000000      0.00000000      0.00000000      0.00000000      0.00000000      0.00000000      0.00000000      0.00000000      0.00000000</v>
  </separator>
  <separator name="orbital magnetization" >
   <i type="logical" name="NUCIND"> F  </i>
   <v name="MAGPOS">      0.00000000      0.00000000      0.00000000</v>
   <i type="logical" name="LNICSALL"> T  </i>
   <i type="logical" name="ORBITALMAG"> F  </i>
   <i type="logical" name="LMAGBLOCH"> F  </i>
   <i type="logical" name="LCHIMAG"> F  </i>
   <i type="logical" name="LGAUGE"> T  </i>
   <i type="int" name="MAGATOM">     0</i>
   <v name="MAGDIPOL">      0.00000000      0.00000000      0.00000000</v>
   <v name="AVECCONST">      0.00000000      0.00000000      0.00000000</v>
  </separator>
  <separator name="response functions" >
   <i type="logical" name="LFINITE_TEMPERATURE"> F  </i>
   <i type="logical" name="LADDER"> F  </i>
   <i type="logical" name="LRPAFORCE"> F  </i>
   <i type="logical" name="LFXC"> F  </i>
   <i type="logical" name="LHARTREE"> T  </i>
   <i type="int" name="IBSE">     0</i>
   <v type="int" name="KPOINT">    -1     0     0     0</v>
   <i type="logical" name="LTCTC"> F  </i>
   <i type="logical" name="LTCTE"> F  </i>
   <i type="logical" name="LTETE"> F  </i>
   <i type="logical" name="LTRIPLET"> F  </i>
   <i type="logical" name="LFXCEPS"> F  </i>
   <i type="logical" name="LFXHEG"> F  </i>
   <i type="int" name="NATURALO">     2</i>
   <i type="logical" name="LHOLEGF"> F  </i>
   <i type="logical" name="L2ORDER"> F  </i>
   <i type="logical" name="LDMP1"> F  </i>
   <i type="logical" name="LMP2LT"> F  </i>
   <i type="logical" name="LSMP2LT"> F  </i>
   <i type="logical" name="LGWLF"> F  </i>
   <i name="ENCUTGW">     -2.00000000</i>
   <i name="ENCUTGWSOFT">     -2.00000000</i>
   <i name="ENCUTLF">     -1.00000000</i>
   <i type="logical" name="LESF_SPLINES"> F  </i>
   <i type="int" name="LMAXMP2">    -1</i>
   <i name="SCISSOR">      0.00000000</i>
   <i type="int" name="NOMEGA">     0</i>
   <i type="int" name="NOMEGAR">     0</i>
   <i type="int" name="NBANDSGW">    -1</i>
   <i type="int" name="NBANDSO">    -1</i>
   <i type="int" name="NBANDSV">    -1</i>
   <i type="int" name="NELMGW">     1</i>
   <i type="int" name="NELMHF">     1</i>
   <i type="int" name="DIM">     3</i>
   <i type="int" name="IESPILON">     4</i>
   <i type="int" name="ANTIRES">     0</i>
   <i name="OMEGAMAX">    -30.00000000</i>
   <i name="OMEGAMIN">    -30.00000000</i>
   <i name="OMEGATL">   -200.00000000</i>
   <i type="int" name="OMEGAGRID">     0</i>
   <i name="CSHIFT">     -0.10000000</i>
   <i type="logical" name="LSELFENERGY"> F  </i>
   <i type="logical" name="LSPECTRAL"> F  </i>
   <i type="logical" name="LSPECTRALGW"> F  </i>
   <i type="logical" name="LSINGLES"> F  </i>
   <i type="logical" name="LFERMIGW"> F  </i>
   <i type="logical" name="ODDONLYGW"> F  </i>
   <i type="logical" name="EVENONLYGW"> F  </i>
   <i type="int" name="NKREDLFX">     1</i>
   <i type="int" name="NKREDLFY">     1</i>
   <i type="int" name="NKREDLFZ">     1</i>
   <i type="int" name="MAXMEM">  2800</i>
   <i type="int" name="TELESCOPE">     0</i>
   <i type="int" name="NTAUPAR">    -1</i>
   <i type="int" name="NOMEGAPAR">    -1</i>
   <i name="DAMP_NEWTON">      0.80000001</i>
   <i name="LAMBDA">      1.00000000</i>
  </separator>
  <separator name="External order field" >
   <i name="OFIELD_KAPPA">      0.00000000</i>
   <v name="OFIELD_K">      0.00000000      0.00000000      0.00000000</v>
   <i name="OFIELD_Q6_NEAR">      0.00000000</i>
   <i name="OFIELD_Q6_FAR">      0.00000000</i>
   <i name="OFIELD_A">      0.00000000</i>
  </separator>
  <separator name="optional k-points parameters" >
   <i type="int" name="KPOINTS_OPT_MODE">     1</i>
   <i type="logical" name="LKPOINTS_OPT"> F  </i>
  </separator>
 </parameters>
 <atominfo>
  <atoms>       1 </atoms>
  <types>       1 </types>
  <array name="atoms" >
   <dimension dim="1">ion</dimension>
   <field type="string">element</field>
   <field type="int">atomtype</field>
   <set>
    <rc><c>Si</c><c>   1</c></rc>
   </set>
  </array>
  <array name="atomtypes" >
   <dimension dim="1">type</dimension>
   <field type="int">atomspertype</field>
   <field type="string">element</field>
   <field>mass</field>
   <field>valence</field>
   <field type="string">pseudopotential</field>
   <set>
    <rc><c>   1</c><c>Si</c><c>     28.08500000</c><c>      4.00000000</c><c> PAW Si 02Apr1999                       </c></rc>
   </set>
  </array>
 </atominfo>
 <structure name="initialpos" >
  <crystal>
   <varray name="basis" >
    <v>       5.50000000       0.00000000       0.00000000 </v>
    <v>       0.00000000       5.50000000       0.00000000 </v>
    <v>       0.00000000       0.00000000       5.50000000 </v>
   </varray>
   <i name="volume">    166.37500000 </i>
   <varray name="rec_basis" >
    <v>       0.18181818       0.00000000       0.00000000 </v>
    <v>       0.00000000       0.18181818       0.00000000 </v>
    <v>       0.00000000       0.00000000       0.18181818 </v>
   </varray>
  </crystal>
  <varray name="positions" >
   <v>       0.00000000       0.00000000       0.00000000 </v>
  </varray>
 </structure>
 <calculation>
  <scstep>
   <time name="dav">    0.09    0.10</time>
   <time name="total">    0.13    0.17</time>
   <energy>
    <i name="alphaZ">      0.14248216 </i>
    <i name="ewald">    -59.42760729 </i>
    <i name="hartreedc">    -26.47254173 </i>
    <i name="XCdc">    -10.87929616 </i>
    <i name="pawpsdc">     33.55897582 </i>
    <i name="pawaedc">    -16.14130609 </i>
    <i name="eentropy">     -0.00635845 </i>
    <i name="bandstr">    -20.23488713 </i>
    <i name="atom">    103.43265638 </i>
    <i name="e_fr_energy">      3.97211751 </i>
    <i name="e_wo_entrp">      3.97847596 </i>
    <i name="e_0_energy">      3.97529674 </i>
   </energy>
  </scstep>
  <scstep>
   <time name="dav">    0.12    0.12</time>
   <time name="total">    0.12    0.12</time>
   <energy>
    <i name="e_fr_energy">     -0.30730160 </i>
    <i name="e_wo_entrp">     -0.28178618 </i>
    <i name="e_0_energy">     -0.29454389 </i>
   </energy>
  </scstep>
  <scstep>
   <time name="dav">    0.09    0.09</time>
   <time name="total">    0.09    0.09</time>
   <energy>
    <i name="e_fr_energy">     -0.54093504 </i>
    <i name="e_wo_entrp">     -0.50089790 </i>
    <i name="e_0_energy">     -0.52091647 </i>
   </energy>
  </scstep>
  <scstep>
   <time name="dav">    0.12    0.14</time>
   <time name="total">    0.12    0.14</time>
   <energy>
    <i name="e_fr_energy">     -0.54689289 </i>
    <i name="e_wo_entrp">     -0.50705140 </i>
    <i name="e_0_energy">     -0.52697214 </i>
   </energy>
  </scstep>
  <scstep>
   <time name="dav">    0.13    0.13</time>
   <time name="total">    0.15    0.15</time>
   <energy>
    <i name="e_fr_energy">     -0.54692299 </i>
    <i name="e_wo_entrp">     -0.50707799 </i>
    <i name="e_0_energy">     -0.52700049 </i>
   </energy>
  </scstep>
  <scstep>
   <time name="diag">    0.02    0.03</time>
   <time name="diis">    0.09    0.09</time>
   <time name="orth">    0.00    0.00</time>
   <time name="total">    0.15    0.20</time>
   <energy>
    <i name="e_fr_energy">     -0.53870155 </i>
    <i name="e_wo_entrp">     -0.49818001 </i>
    <i name="e_0_energy">     -0.51844078 </i>
   </energy>
  </scstep>
  <scstep>
   <time name="diag">    0.02    0.03</time>
   <time name="diis">    0.09    0.09</time>
   <time name="orth">    0.00    0.00</time>
   <time name="total">    0.15    0.16</time>
   <energy>
    <i name="e_fr_energy">     -0.53602252 </i>
    <i name="e_wo_entrp">     -0.49450379 </i>
    <i name="e_0_energy">     -0.51526315 </i>
   </energy>
  </scstep>
  <scstep>
   <time name="diag">    0.02    0.02</time>
   <time name="diis">    0.09    0.10</time>
   <time name="orth">    0.00    0.00</time>
   <time name="total">    0.15    0.17</time>
   <energy>
    <i name="e_fr_energy">     -0.53709494 </i>
    <i name="e_wo_entrp">     -0.49598033 </i>
    <i name="e_0_energy">     -0.51653763 </i>
   </energy>
  </scstep>
  <scstep>
   <time name="diag">    0.02    0.03</time>
   <time name="diis">    0.08    0.08</time>
   <time name="orth">    0.00    0.00</time>
   <time name="total">    0.15    0.16</time>
   <energy>
    <i name="e_fr_energy">     -0.53700039 </i>
    <i name="e_wo_entrp">     -0.49565495 </i>
    <i name="e_0_energy">     -0.51632767 </i>
   </energy>
  </scstep>
  <scstep>
   <time name="diag">    0.02    0.02</time>
   <time name="diis">    0.09    0.09</time>
   <time name="orth">    0.00    0.00</time>
   <time name="total">    0.15    0.16</time>
   <energy>
    <i name="e_fr_energy">     -0.53706161 </i>
    <i name="e_wo_entrp">     -0.49568753 </i>
    <i name="e_0_energy">     -0.51637457 </i>
   </energy>
  </scstep>
  <scstep>
   <time name="diag">    0.03    0.03</time>
   <time name="diis">    0.07    0.07</time>
   <time name="orth">    0.00    0.00</time>
   <time name="total">    0.12    0.12</time>
   <energy>
    <i name="alphaZ">      0.14248216 </i>
    <i name="ewald">    -59.42760729 </i>
    <i name="hartreedc">    -25.16456735 </i>
    <i name="XCdc">    -11.02733511 </i>
    <i name="pawpsdc">     32.96215884 </i>
    <i name="pawaedc">    -15.52572451 </i>
    <i name="eentropy">     -0.04134832 </i>
    <i name="bandstr">    -25.88777495 </i>
    <i name="atom">    103.43265638 </i>
    <i name="e_fr_energy">     -0.53706016 </i>
    <i name="e_wo_entrp">     -0.49571183 </i>
    <i name="e_0_energy">     -0.51638599 </i>
   </energy>
  </scstep>
  <structure>
   <crystal>
    <varray name="basis" >
     <v>       5.50000000       0.00000000       0.00000000 </v>
     <v>       0.00000000       5.50000000       0.00000000 </v>
     <v>       0.00000000       0.00000000       5.50000000 </v>
    </varray>
    <i name="volume">    166.37500000 </i>
    <varray name="rec_basis" >
     <v>       0.18181818       0.00000000       0.00000000 </v>
     <v>       0.00000000       0.18181818       0.00000000 </v>
     <v>       0.00000000       0.00000000       0.18181818 </v>
    </varray>
   </crystal>
   <varray name="positions" >
    <v>       0.00000000       0.00000000       0.00000000 </v>
   </varray>
  </structure>
  <varray name="forces" >
   <v>       0.00000000      -0.00000000       0.00000000 </v>
  </varray>
  <varray name="stress" >
   <v>      -8.96257142      -0.00000000       0.00000000 </v>
   <v>      -0.00000000      -8.96257142      -0.00000000 </v>
   <v>      -0.00000000      -0.00000000      -8.96257142 </v>
  </varray>
  <energy>
   <i name="e_fr_energy">     -0.53706016 </i>
   <i name="e_wo_entrp">     -0.49571183 </i>
   <i name="e_0_energy">     -0.51638599 </i>
  </energy>
  <time name="totalsc">    1.65    1.87</time>
  <eigenvalues>
   <array>
    <dimension dim="1">band</dimension>
    <dimension dim="2">kpoint</dimension>
    <dimension dim="3">spin</dimension>
    <field>eigene</field>
    <field>occ</field>
    <set>
     <set comment="spin 1">
      <set comment="kpoint 1">
       <r>   -9.7979    1.0000 </r>
       <r>   -2.8019    0.0000 </r>
       <r>   -2.7738    0.0000 </r>
       <r>   -2.7738    0.0000 </r>
       <r>    0.0836    0.0000 </r>
       <r>    2.3683    0.0000 </r>
      </set>
      <set comment="kpoint 2">
       <r>   -9.7781    1.0000 </r>
       <r>   -3.0793    0.3788 </r>
       <r>   -2.7591    0.0000 </r>
       <r>   -2.7451    0.0000 </r>
       <r>    0.5073    0.0000 </r>
       <r>    2.4461    0.0000 </r>
      </set>
      <set comment="kpoint 3">
       <r>   -9.7579    1.0000 </r>
       <r>   -3.3212    0.9991 </r>
       <r>   -2.7283    0.0000 </r>
       <r>   -2.7157    0.0000 </r>
       <r>    1.0719    0.0000 </r>
       <r>    1.9363    0.0000 </r>
      </set>
      <set comment="kpoint 4">
       <r>   -9.7588    1.0000 </r>
       <r>   -3.0619    0.2894 </r>
       <r>   -3.0038    0.0843 </r>
       <r>   -2.7234    0.0000 </r>
       <r>    0.8850    0.0000 </r>
       <r>    2.3652    0.0000 </r>
      </set>
      <set comment="kpoint 5">
       <r>   -9.7392    1.0000 </r>
       <r>   -3.2678    0.9908 </r>
       <r>   -2.9853    0.0507 </r>
       <r>   -2.6949    0.0000 </r>
       <r>    1.3553    0.0000 </r>
       <r>    1.9008    0.0000 </r>
      </set>
      <set comment="kpoint 6">
       <r>   -9.7201    1.0000 </r>
       <r>   -3.2162    0.9482 </r>
       <r>   -3.2040    0.9271 </r>
       <r>   -2.6680    0.0000 </r>
       <r>    1.2829    0.0000 </r>
       <r>    2.1933    0.0000 </r>
      </set>
      <set comment="kpoint 7">
       <r>   -9.7400    1.0000 </r>
       <r>   -3.0394    0.1915 </r>
       <r>   -2.9660    0.0280 </r>
       <r>   -2.9660    0.0280 </r>
       <r>    1.1850    0.0000 </r>
       <r>    2.6805    0.0000 </r>
      </set>
      <set comment="kpoint 8">
       <r>   -9.7209    1.0000 </r>
       <r>   -3.2182    0.9511 </r>
       <r>   -2.9669    0.0289 </r>
       <r>   -2.9266    0.0068 </r>
       <r>    1.4968    0.0000 </r>
       <r>    2.2416    0.0000 </r>
      </set>
      <set comment="kpoint 9">
       <r>   -9.7023    1.0000 </r>
       <r>   -3.1705    0.8367 </r>
       <r>   -3.1592    0.7943 </r>
       <r>   -2.9072    0.0031 </r>
       <r>    1.4852    0.0000 </r>
       <r>    2.2841    0.0000 </r>
      </set>
      <set comment="kpoint 10">
       <r>   -9.6842    1.0000 </r>
       <r>   -3.1258    0.6362 </r>
       <r>   -3.1122    0.5623 </r>
       <r>   -3.1122    0.5623 </r>
       <r>    1.7420    0.0000 </r>
       <r>    1.9986    0.0000 </r>
      </set>
     </set>
    </set>
   </array>
  </eigenvalues>
  <separator name="orbital magnetization" >
   <v name="MAGDIPOLOUT">      0.00000000      0.00000000      0.00000000</v>
  </separator>
  <dos>
   <i name="efermi">     -3.10113498 </i>
   <total>
    <array>
     <dimension dim="1">gridpoints</dimension>
     <dimension dim="2">spin</dimension>
     <field>energy</field>
     <field>total</field>
     <field>integrated</field>
     <set>
      <set comment="spin 1">
       <r>   -10.7979     0.0000     0.0000 </r>
       <r>   -10.7496     0.0000     0.0000 </r>
       <r>   -10.7014     0.0000     0.0000 </r>
       <r>   -10.6531     0.0000     0.0000 </r>
       <r>   -10.6048     0.0000     0.0000 </r>
       <r>   -10.5566     0.0000     0.0000 </r>
       <r>   -10.5083     0.0000     0.0000 </r>
       <r>   -10.4601     0.0000     0.0000 </r>
       <r>   -10.4118     0.0000     0.0000 </r>
       <r>   -10.3635     0.0000     0.0000 </r>
       <r>   -10.3153     0.0000     0.0000 </r>
       <r>   -10.2670     0.0000     0.0000 </r>
       <r>   -10.2187     0.0000     0.0000 </r>
       <r>   -10.1705     0.0000     0.0000 </r>
       <r>   -10.1222     0.0000     0.0000 </r>
       <r>   -10.0740     0.0002     0.0000 </r>
       <r>   -10.0257     0.0029     0.0002 </r>
       <r>    -9.9774     0.0311     0.0016 </r>
       <r>    -9.9292     0.2188     0.0122 </r>
       <r>    -9.8809     1.0303     0.0619 </r>
       <r>    -9.8327     3.2586     0.2192 </r>
       <r>    -9.7844     6.9457     0.5544 </r>
       <r>    -9.7361     9.9978     1.0369 </r>
       <r>    -9.6879     9.7235     1.5062 </r>
       <r>    -9.6396     6.3833     1.8142 </r>
       <r>    -9.5913     2.8219     1.9504 </r>
       <r>    -9.5431     0.8372     1.9908 </r>
       <r>    -9.4948     0.1659     1.9988 </r>
       <r>    -9.4466     0.0219     1.9999 </r>
       <r>    -9.3983     0.0019     2.0000 </r>
       <r>    -9.3500     0.0001     2.0000 </r>
       <r>    -9.3018     0.0000     2.0000 </r>
       <r>    -9.2535     0.0000     2.0000 </r>
       <r>    -9.2053     0.0000     2.0000 </r>
       <r>    -9.1570     0.0000     2.0000 </r>
       <r>    -9.1087     0.0000     2.0000 </r>
       <r>    -9.0605     0.0000     2.0000 </r>
       <r>    -9.0122     0.0000     2.0000 </r>
       <r>    -8.9639     0.0000     2.0000 </r>
       <r>    -8.9157     0.0000     2.0000 </r>
       <r>    -8.8674     0.0000     2.0000 </r>
       <r>    -8.8192     0.0000     2.0000 </r>
       <r>    -8.7709     0.0000     2.0000 </r>
       <r>    -8.7226     0.0000     2.0000 </r>
       <r>    -8.6744     0.0000     2.0000 </r>
       <r>    -8.6261     0.0000     2.0000 </r>
       <r>    -8.5779     0.0000     2.0000 </r>
       <r>    -8.5296     0.0000     2.0000 </r>
       <r>    -8.4813     0.0000     2.0000 </r>
       <r>    -8.4331     0.0000     2.0000 </r>
       <r>    -8.3848     0.0000     2.0000 </r>
       <r>    -8.3366     0.0000     2.0000 </r>
       <r>    -8.2883     0.0000     2.0000 </r>
       <r>    -8.2400     0.0000     2.0000 </r>
       <r>    -8.1918     0.0000     2.0000 </r>
       <r>    -8.1435     0.0000     2.0000 </r>
       <r>    -8.0952     0.0000     2.0000 </r>
       <r>    -8.0470     0.0000     2.0000 </r>
       <r>    -7.9987     0.0000     2.0000 </r>
       <r>    -7.9505     0.0000     2.0000 </r>
       <r>    -7.9022     0.0000     2.0000 </r>
       <r>    -7.8539     0.0000     2.0000 </r>
       <r>    -7.8057     0.0000     2.0000 </r>
       <r>    -7.7574     0.0000     2.0000 </r>
       <r>    -7.7092     0.0000     2.0000 </r>
       <r>    -7.6609     0.0000     2.0000 </r>
       <r>    -7.6126     0.0000     2.0000 </r>
       <r>    -7.5644     0.0000     2.0000 </r>
       <r>    -7.5161     0.0000     2.0000 </r>
       <r>    -7.4678     0.0000     2.0000 </r>
       <r>    -7.4196     0.0000     2.0000 </r>
       <r>    -7.3713     0.0000     2.0000 </r>
       <r>    -7.3231     0.0000     2.0000 </r>
       <r>    -7.2748     0.0000     2.0000 </r>
       <r>    -7.2265     0.0000     2.0000 </r>
       <r>    -7.1783     0.0000     2.0000 </r>
       <r>    -7.1300     0.0000     2.0000 </r>
       <r>    -7.0818     0.0000     2.0000 </r>
       <r>    -7.0335     0.0000     2.0000 </r>
       <r>    -6.9852     0.0000     2.0000 </r>
       <r>    -6.9370     0.0000     2.0000 </r>
       <r>    -6.8887     0.0000     2.0000 </r>
       <r>    -6.8404     0.0000     2.0000 </r>
       <r>    -6.7922     0.0000     2.0000 </r>
       <r>    -6.7439     0.0000     2.0000 </r>
       <r>    -6.6957     0.0000     2.0000 </r>
       <r>    -6.6474     0.0000     2.0000 </r>
       <r>    -6.5991     0.0000     2.0000 </r>
       <r>    -6.5509     0.0000     2.0000 </r>
       <r>    -6.5026     0.0000     2.0000 </r>
       <r>    -6.4544     0.0000     2.0000 </r>
       <r>    -6.4061     0.0000     2.0000 </r>
       <r>    -6.3578     0.0000     2.0000 </r>
       <r>    -6.3096     0.0000     2.0000 </r>
       <r>    -6.2613     0.0000     2.0000 </r>
       <r>    -6.2131     0.0000     2.0000 </r>
       <r>    -6.1648     0.0000     2.0000 </r>
       <r>    -6.1165     0.0000     2.0000 </r>
       <r>    -6.0683     0.0000     2.0000 </r>
       <r>    -6.0200     0.0000     2.0000 </r>
       <r>    -5.9717     0.0000     2.0000 </r>
       <r>    -5.9235     0.0000     2.0000 </r>
       <r>    -5.8752     0.0000     2.0000 </r>
       <r>    -5.8270     0.0000     2.0000 </r>
       <r>    -5.7787     0.0000     2.0000 </r>
       <r>    -5.7304     0.0000     2.0000 </r>
       <r>    -5.6822     0.0000     2.0000 </r>
       <r>    -5.6339     0.0000     2.0000 </r>
       <r>    -5.5857     0.0000     2.0000 </r>
       <r>    -5.5374     0.0000     2.0000 </r>
       <r>    -5.4891     0.0000     2.0000 </r>
       <r>    -5.4409     0.0000     2.0000 </r>
       <r>    -5.3926     0.0000     2.0000 </r>
       <r>    -5.3443     0.0000     2.0000 </r>
       <r>    -5.2961     0.0000     2.0000 </r>
       <r>    -5.2478     0.0000     2.0000 </r>
       <r>    -5.1996     0.0000     2.0000 </r>
       <r>    -5.1513     0.0000     2.0000 </r>
       <r>    -5.1030     0.0000     2.0000 </r>
       <r>    -5.0548     0.0000     2.0000 </r>
       <r>    -5.0065     0.0000     2.0000 </r>
       <r>    -4.9583     0.0000     2.0000 </r>
       <r>    -4.9100     0.0000     2.0000 </r>
       <r>    -4.8617     0.0000     2.0000 </r>
       <r>    -4.8135     0.0000     2.0000 </r>
       <r>    -4.7652     0.0000     2.0000 </r>
       <r>    -4.7169     0.0000     2.0000 </r>
       <r>    -4.6687     0.0000     2.0000 </r>
       <r>    -4.6204     0.0000     2.0000 </r>
       <r>    -4.5722     0.0000     2.0000 </r>
       <r>    -4.5239     0.0000     2.0000 </r>
       <r>    -4.4756     0.0000     2.0000 </r>
       <r>    -4.4274     0.0000     2.0000 </r>
       <r>    -4.3791     0.0000     2.0000 </r>
       <r>    -4.3309     0.0000     2.0000 </r>
       <r>    -4.2826     0.0000     2.0000 </r>
       <r>    -4.2343     0.0000     2.0000 </r>
       <r>    -4.1861     0.0000     2.0000 </r>
       <r>    -4.1378     0.0000     2.0000 </r>
       <r>    -4.0896     0.0000     2.0000 </r>
       <r>    -4.0413     0.0000     2.0000 </r>
       <r>    -3.9930     0.0000     2.0000 </r>
       <r>    -3.9448     0.0000     2.0000 </r>
       <r>    -3.8965     0.0000     2.0000 </r>
       <r>    -3.8482     0.0000     2.0000 </r>
       <r>    -3.8000     0.0000     2.0000 </r>
       <r>    -3.7517     0.0000     2.0000 </r>
       <r>    -3.7035     0.0000     2.0000 </r>
       <r>    -3.6552     0.0000     2.0000 </r>
       <r>    -3.6069     0.0001     2.0000 </r>
       <r>    -3.5587     0.0019     2.0001 </r>
       <r>    -3.5104     0.0181     2.0010 </r>
       <r>    -3.4622     0.1169     2.0066 </r>
       <r>    -3.4139     0.5124     2.0313 </r>
       <r>    -3.3656     1.5746     2.1073 </r>
       <r>    -3.3174     3.5319     2.2778 </r>
       <r>    -3.2691     6.0270     2.5687 </r>
       <r>    -3.2208     8.1083     2.9600 </r>
       <r>    -3.1726     8.9263     3.3908 </r>
       <r>    -3.1243     8.6319     3.8074 </r>
       <r>    -3.0761     8.3066     4.2082 </r>
       <r>    -3.0278     8.6931     4.6278 </r>
       <r>    -2.9795     9.2089     5.0722 </r>
       <r>    -2.9313     8.5793     5.4863 </r>
       <r>    -2.8830     6.7500     5.8120 </r>
       <r>    -2.8348     5.5672     6.0807 </r>
       <r>    -2.7865     6.7004     6.4041 </r>
       <r>    -2.7382     9.1738     6.8468 </r>
       <r>    -2.6900    10.0001     7.3294 </r>
       <r>    -2.6417     7.7529     7.7036 </r>
       <r>    -2.5934     4.1614     7.9044 </r>
       <r>    -2.5452     1.5286     7.9782 </r>
       <r>    -2.4969     0.3804     7.9966 </r>
       <r>    -2.4487     0.0635     7.9996 </r>
       <r>    -2.4004     0.0070     8.0000 </r>
       <r>    -2.3521     0.0005     8.0000 </r>
       <r>    -2.3039     0.0000     8.0000 </r>
       <r>    -2.2556     0.0000     8.0000 </r>
       <r>    -2.2074     0.0000     8.0000 </r>
       <r>    -2.1591     0.0000     8.0000 </r>
       <r>    -2.1108     0.0000     8.0000 </r>
       <r>    -2.0626     0.0000     8.0000 </r>
       <r>    -2.0143     0.0000     8.0000 </r>
       <r>    -1.9661     0.0000     8.0000 </r>
       <r>    -1.9178     0.0000     8.0000 </r>
       <r>    -1.8695     0.0000     8.0000 </r>
       <r>    -1.8213     0.0000     8.0000 </r>
       <r>    -1.7730     0.0000     8.0000 </r>
       <r>    -1.7247     0.0000     8.0000 </r>
       <r>    -1.6765     0.0000     8.0000 </r>
       <r>    -1.6282     0.0000     8.0000 </r>
       <r>    -1.5800     0.0000     8.0000 </r>
       <r>    -1.5317     0.0000     8.0000 </r>
       <r>    -1.4834     0.0000     8.0000 </r>
       <r>    -1.4352     0.0000     8.0000 </r>
       <r>    -1.3869     0.0000     8.0000 </r>
       <r>    -1.3387     0.0000     8.0000 </r>
       <r>    -1.2904     0.0000     8.0000 </r>
       <r>    -1.2421     0.0000     8.0000 </r>
       <r>    -1.1939     0.0000     8.0000 </r>
       <r>    -1.1456     0.0000     8.0000 </r>
       <r>    -1.0973     0.0000     8.0000 </r>
       <r>    -1.0491     0.0000     8.0000 </r>
       <r>    -1.0008     0.0000     8.0000 </r>
       <r>    -0.9526     0.0000     8.0000 </r>
       <r>    -0.9043     0.0000     8.0000 </r>
       <r>    -0.8560     0.0000     8.0000 </r>
       <r>    -0.8078     0.0000     8.0000 </r>
       <r>    -0.7595     0.0000     8.0000 </r>
       <r>    -0.7113     0.0000     8.0000 </r>
       <r>    -0.6630     0.0000     8.0000 </r>
       <r>    -0.6147     0.0000     8.0000 </r>
       <r>    -0.5665     0.0000     8.0000 </r>
       <r>    -0.5182     0.0000     8.0000 </r>
       <r>    -0.4699     0.0000     8.0000 </r>
       <r>    -0.4217     0.0000     8.0000 </r>
       <r>    -0.3734     0.0000     8.0000 </r>
       <r>    -0.3252     0.0000     8.0000 </r>
       <r>    -0.2769     0.0000     8.0000 </r>
       <r>    -0.2286     0.0000     8.0000 </r>
       <r>    -0.1804     0.0001     8.0000 </r>
       <r>    -0.1321     0.0016     8.0001 </r>
       <r>    -0.0839     0.0119     8.0007 </r>
       <r>    -0.0356     0.0567     8.0034 </r>
       <r>     0.0127     0.1717     8.0117 </r>
       <r>     0.0609     0.3320     8.0277 </r>
       <r>     0.1092     0.4099     8.0475 </r>
       <r>     0.1574     0.3233     8.0631 </r>
       <r>     0.2057     0.1629     8.0710 </r>
       <r>     0.2540     0.0531     8.0735 </r>
       <r>     0.3022     0.0186     8.0744 </r>
       <r>     0.3505     0.0541     8.0770 </r>
       <r>     0.3988     0.2264     8.0880 </r>
       <r>     0.4470     0.6200     8.1179 </r>
       <r>     0.4953     1.0848     8.1702 </r>
       <r>     0.5435     1.2125     8.2287 </r>
       <r>     0.5918     0.8659     8.2705 </r>
       <r>     0.6401     0.3960     8.2896 </r>
       <r>     0.6883     0.1262     8.2957 </r>
       <r>     0.7366     0.0914     8.3002 </r>
       <r>     0.7848     0.2810     8.3137 </r>
       <r>     0.8331     0.7074     8.3479 </r>
       <r>     0.8814     1.1567     8.4037 </r>
       <r>     0.9296     1.2667     8.4648 </r>
       <r>     0.9779     1.1033     8.5181 </r>
       <r>     1.0262     1.1145     8.5718 </r>
       <r>     1.0744     1.3427     8.6366 </r>
       <r>     1.1227     1.4148     8.7049 </r>
       <r>     1.1709     1.3196     8.7686 </r>
       <r>     1.2192     1.4862     8.8403 </r>
       <r>     1.2675     2.1698     8.9451 </r>
       <r>     1.3157     3.0901     9.0942 </r>
       <r>     1.3640     3.6223     9.2690 </r>
       <r>     1.4122     3.5406     9.4399 </r>
       <r>     1.4605     3.2786     9.5981 </r>
       <r>     1.5088     2.9591     9.7409 </r>
       <r>     1.5570     2.1999     9.8471 </r>
       <r>     1.6053     1.1794     9.9040 </r>
       <r>     1.6536     0.5174     9.9290 </r>
       <r>     1.7018     0.3852     9.9476 </r>
       <r>     1.7501     0.5596     9.9746 </r>
       <r>     1.7983     0.9994    10.0228 </r>
       <r>     1.8466     1.9567    10.1172 </r>
       <r>     1.8949     3.2357    10.2734 </r>
       <r>     1.9431     3.8212    10.4578 </r>
       <r>     1.9914     3.1164    10.6082 </r>
       <r>     2.0396     1.8344    10.6968 </r>
       <r>     2.0879     1.0360    10.7468 </r>
       <r>     2.1362     1.1855    10.8040 </r>
       <r>     2.1844     2.1143    10.9060 </r>
       <r>     2.2327     3.1830    11.0596 </r>
       <r>     2.2809     3.7430    11.2403 </r>
       <r>     2.3292     3.7134    11.4195 </r>
       <r>     2.3775     3.4029    11.5837 </r>
       <r>     2.4257     2.9176    11.7245 </r>
       <r>     2.4740     2.1722    11.8293 </r>
       <r>     2.5223     1.2873    11.8915 </r>
       <r>     2.5705     0.6131    11.9211 </r>
       <r>     2.6188     0.3595    11.9384 </r>
       <r>     2.6670     0.3883    11.9572 </r>
       <r>     2.7153     0.4093    11.9769 </r>
       <r>     2.7636     0.2939    11.9911 </r>
       <r>     2.8118     0.1358    11.9977 </r>
       <r>     2.8601     0.0401    11.9996 </r>
       <r>     2.9083     0.0075    12.0000 </r>
       <r>     2.9566     0.0009    12.0000 </r>
       <r>     3.0049     0.0001    12.0000 </r>
       <r>     3.0531     0.0000    12.0000 </r>
       <r>     3.1014     0.0000    12.0000 </r>
       <r>     3.1497     0.0000    12.0000 </r>
       <r>     3.1979     0.0000    12.0000 </r>
       <r>     3.2462     0.0000    12.0000 </r>
       <r>     3.2944     0.0000    12.0000 </r>
       <r>     3.3427     0.0000    12.0000 </r>
       <r>     3.3910     0.0000    12.0000 </r>
       <r>     3.4392     0.0000    12.0000 </r>
       <r>     3.4875     0.0000    12.0000 </r>
       <r>     3.5357     0.0000    12.0000 </r>
       <r>     3.5840     0.0000    12.0000 </r>
       <r>     3.6323     0.0000    12.0000 </r>
       <r>     3.6805     0.0000    12.0000 </r>
      </set>
     </set>
    </array>
   </total>
  </dos>
 </calculation>
 <structure name="finalpos" >
  <crystal>
   <varray name="basis" >
    <v>       5.50000000       0.00000000       0.00000000 </v>
    <v>       0.00000000       5.50000000       0.00000000 </v>
    <v>       0.00000000       0.00000000       5.50000000 </v>
   </varray>
   <i name="volume">    166.37500000 </i>
   <varray name="rec_basis" >
    <v>       0.18181818       0.00000000       0.00000000 </v>
    <v>       0.00000000       0.18181818       0.00000000 </v>
    <v>       0.00000000       0.00000000       0.18181818 </v>
   </varray>
  </crystal>
  <varray name="positions" >
   <v>       0.00000000       0.00000000       0.00000000 </v>
  </varray>
 </structure>
</modeling>
