 running on    1 total cores
 distrk:  each k-point on    1 cores,    1 groups
 distr:  one band on    1 cores,    1 groups
 vasp.6.3.2 27Jun22 (build Dec 02 2024 22:47:12) complex                        
  
 POSCAR found :  1 types and       1 ions
 scaLAPACK will be used
 LDA part: xc-table for Ceperly-Alder, standard interpolation
 POSCAR, INCAR and KPOINTS ok, starting setup
 FFT: planning ... GRIDC
 FFT: planning ... GRID_SOFT
 FFT: planning ... GRID
 WAVECAR not read
 WARNING: random wavefunctions but no delay for mixing, default for NELMDL
 entering main loop
       N       E                     dE             d eps       ncg     rms          rms(c)
DAV:   1     0.397211751379E+01    0.39721E+01   -0.84528E+02   120   0.313E+02
DAV:   2    -0.307301600109E+00   -0.42794E+01   -0.42087E+01   186   0.307E+01
DAV:   3    -0.540935037742E+00   -0.23363E+00   -0.21056E+00   126   0.683E+00
DAV:   4    -0.546892889965E+00   -0.59579E-02   -0.59341E-02   198   0.145E+00
DAV:   5    -0.546922989936E+00   -0.30100E-04   -0.30078E-04   204   0.686E-02    0.335E-01
RMM:   6    -0.538701553998E+00    0.82214E-02   -0.70323E-03   120   0.374E-01    0.192E-01
RMM:   7    -0.536022515517E+00    0.26790E-02   -0.18377E-02   120   0.606E-01    0.626E-02
RMM:   8    -0.537094936984E+00   -0.10724E-02   -0.67480E-04   120   0.157E-01    0.314E-02
RMM:   9    -0.537000391866E+00    0.94545E-04   -0.45922E-04   120   0.112E-01    0.888E-03
RMM:  10    -0.537061613158E+00   -0.61221E-04   -0.70605E-05   120   0.526E-02    0.485E-03
RMM:  11    -0.537060155210E+00    0.14579E-05   -0.10237E-05    84   0.273E-02
   1 F= -.53706016E+00 E0= -.51638599E+00  d E =-.537060E+00
 curvature:   0.00 expect dE= 0.000E+00 dE for cont linesearch  0.000E+00
 trial: gam= 0.00000 g(F)=  0.687E-66 g(S)=  0.000E+00 ort = 0.000E+00 (trialstep = 0.100E+01)
 search vector abs. value=  0.100E-09
 reached required accuracy - stopping structural energy minimisation
