Silicon                                 
           1
     5.500000    0.000000    0.000000
     0.000000    5.500000    0.000000
     0.000000    0.000000    5.500000
   Si
     1
Direct configuration=     1
   0.00000000  0.00000000  0.00000000
