       N       E                     dE             d eps       ncg     rms          rms(c)
DAV:   1     0.136141112743E+01    0.13614E+01   -0.11829E+03   120   0.363E+02
DAV:   2    -0.317499163017E+01   -0.45364E+01   -0.43066E+01   168   0.366E+01
DAV:   3    -0.329511364864E+01   -0.12012E+00   -0.12006E+00   126   0.582E+00
DAV:   4    -0.329615755014E+01   -0.10439E-02   -0.10435E-02   192   0.754E-01
DAV:   5    -0.329615827512E+01   -0.72498E-06   -0.72491E-06   174   0.187E-02    0.644E-01
DAV:   6    -0.327788229945E+01    0.18276E-01   -0.18063E-02   144   0.605E-01    0.355E-01
DAV:   7    -0.327097807523E+01    0.69042E-02   -0.25808E-02   144   0.731E-01    0.419E-02
DAV:   8    -0.327103858753E+01   -0.60512E-04   -0.27937E-04   186   0.120E-01    0.435E-03
DAV:   9    -0.327103903796E+01   -0.45043E-06   -0.21244E-06   144   0.103E-02
   1 F= -.32710390E+01 E0= -.32687835E+01  d E =-.327104E+01
       N       E                     dE             d eps       ncg     rms          rms(c)
DAV:   1    -0.580665331428E+01   -0.25356E+01   -0.38500E+01   132   0.335E+01    0.407E+00
DAV:   2    -0.504091942930E+01    0.76573E+00   -0.56300E-01   144   0.476E+00    0.227E+00
DAV:   3    -0.468258727481E+01    0.35833E+00   -0.81441E-01   120   0.426E+00    0.166E-01
DAV:   4    -0.468096890031E+01    0.16184E-02   -0.50791E-03   180   0.662E-01    0.519E-02
DAV:   5    -0.468077008595E+01    0.19881E-03   -0.50555E-05   156   0.663E-02    0.739E-03
DAV:   6    -0.468077047871E+01   -0.39276E-06   -0.20367E-06   144   0.920E-03
   2 F= -.46807705E+01 E0= -.46806502E+01  d E =-.140973E+01
       N       E                     dE             d eps       ncg     rms          rms(c)
DAV:   1     0.180568177862E+02    0.22738E+02   -0.83284E+02   180   0.257E+02    0.217E+01
DAV:   2     0.263818571699E+02    0.83250E+01   -0.18358E+00   132   0.162E+01    0.128E+01
DAV:   3     0.310680101933E+02    0.46862E+01   -0.32871E+00   144   0.166E+01    0.757E-01
DAV:   4     0.310726746441E+02    0.46645E-02   -0.76994E-03   150   0.103E+00    0.170E-01
DAV:   5     0.310729261984E+02    0.25155E-03   -0.20873E-04   126   0.152E-01    0.118E-02
DAV:   6     0.310729319139E+02    0.57155E-05   -0.18644E-06    84   0.137E-02
   3 F= 0.31072932E+02 E0= 0.31077989E+02  d E =0.343440E+02
       N       E                     dE             d eps       ncg     rms          rms(c)
DAV:   1    -0.114804325374E+02   -0.42553E+02   -0.19351E+02   186   0.516E+01    0.843E+00
DAV:   2    -0.752245898671E+01    0.39580E+01   -0.25375E+00   126   0.108E+01    0.521E+00
DAV:   3    -0.486707360892E+01    0.26554E+01   -0.42581E+00   144   0.986E+00    0.730E-01
DAV:   4    -0.485188569141E+01    0.15188E-01   -0.50204E-02   144   0.146E+00    0.297E-01
DAV:   5    -0.484915795826E+01    0.27277E-02   -0.33823E-03   150   0.410E-01    0.468E-02
DAV:   6    -0.484907009411E+01    0.87864E-04   -0.30322E-04   144   0.958E-02    0.168E-02
DAV:   7    -0.484903158317E+01    0.38511E-04   -0.39118E-05   156   0.387E-02    0.975E-04
DAV:   8    -0.484903166706E+01   -0.83889E-07   -0.33821E-07    66   0.507E-03
   4 F= -.48490317E+01 E0= -.48489664E+01  d E =-.157799E+01
       N       E                     dE             d eps       ncg     rms          rms(c)
DAV:   1    -0.689728137600E+01   -0.20482E+01   -0.10663E+02   144   0.678E+01    0.692E+00
DAV:   2    -0.542884741197E+01    0.14684E+01   -0.77660E-01   156   0.783E+00    0.402E+00
DAV:   3    -0.465340025496E+01    0.77545E+00   -0.10679E+00   138   0.602E+00    0.338E-01
DAV:   4    -0.464984375796E+01    0.35565E-02   -0.64733E-03   162   0.778E-01    0.481E-02
DAV:   5    -0.464980983910E+01    0.33919E-04   -0.36709E-05   162   0.618E-02    0.844E-03
DAV:   6    -0.464980623045E+01    0.36086E-05   -0.25814E-07    96   0.529E-03
   5 F= -.46498062E+01 E0= -.46498062E+01  d E =-.137877E+01
       N       E                     dE             d eps       ncg     rms          rms(c)
DAV:   1    -0.622069420169E+01   -0.15709E+01   -0.31242E+01   126   0.273E+01    0.360E+00
DAV:   2    -0.570093358233E+01    0.51976E+00   -0.38913E-01   120   0.521E+00    0.207E+00
DAV:   3    -0.541296088365E+01    0.28797E+00   -0.52145E-01   138   0.373E+00    0.123E-01
DAV:   4    -0.541218180461E+01    0.77908E-03   -0.27728E-03   168   0.485E-01    0.599E-02
DAV:   5    -0.541175920421E+01    0.42260E-03   -0.69362E-05   150   0.781E-02    0.568E-03
DAV:   6    -0.541175682131E+01    0.23829E-05   -0.24947E-06    96   0.989E-03
   6 F= -.54117568E+01 E0= -.54116996E+01  d E =-.214072E+01
       N       E                     dE             d eps       ncg     rms          rms(c)
DAV:   1    -0.586355554039E+01   -0.45180E+00   -0.14574E+01   138   0.228E+01    0.257E+00
DAV:   2    -0.563810073920E+01    0.22545E+00   -0.13687E-01   120   0.327E+00    0.147E+00
DAV:   3    -0.552107013996E+01    0.11703E+00   -0.17864E-01   162   0.234E+00    0.976E-02
DAV:   4    -0.552058049426E+01    0.48965E-03   -0.70848E-04   150   0.263E-01    0.306E-02
DAV:   5    -0.552053494948E+01    0.45545E-04   -0.12201E-05   150   0.322E-02    0.244E-03
DAV:   6    -0.552053450517E+01    0.44431E-06   -0.12395E-07    78   0.371E-03
   7 F= -.55205345E+01 E0= -.55172060E+01  d E =-.224950E+01
       N       E                     dE             d eps       ncg     rms          rms(c)
DAV:   1    -0.565915326930E+01   -0.13862E+00   -0.23360E+00   126   0.836E+00    0.105E+00
DAV:   2    -0.561932051710E+01    0.39833E-01   -0.27240E-02   126   0.147E+00    0.601E-01
DAV:   3    -0.559830433507E+01    0.21016E-01   -0.34454E-02   144   0.996E-01    0.326E-02
DAV:   4    -0.559823279537E+01    0.71540E-04   -0.15791E-04   156   0.124E-01    0.158E-02
DAV:   5    -0.559820913938E+01    0.23656E-04   -0.40342E-06   126   0.186E-02    0.108E-03
DAV:   6    -0.559820901940E+01    0.11997E-06   -0.75223E-08    66   0.254E-03
   8 F= -.55982090E+01 E0= -.55949147E+01  d E =-.232717E+01
       N       E                     dE             d eps       ncg     rms          rms(c)
DAV:   1    -0.560125594483E+01   -0.30468E-02   -0.41207E-02   138   0.114E+00    0.138E-01
DAV:   2    -0.560057744336E+01    0.67850E-03   -0.45419E-04   126   0.187E-01    0.783E-02
DAV:   3    -0.560022608570E+01    0.35136E-03   -0.57143E-04   150   0.128E-01    0.448E-03
DAV:   4    -0.560022472494E+01    0.13608E-05   -0.22557E-06   120   0.153E-02
   9 F= -.56002247E+01 E0= -.55959186E+01  d E =-.232919E+01
