 vasp.6.3.2 27Jun22 (build Dec 02 2024 22:47:12) complex                        
  
 executed on             LinuxIFC date 2024.12.06  10:28:34
 running on    1 total cores
 distrk:  each k-point on    1 cores,    1 groups
 distr:  one band on NCORE=   1 cores,    1 groups


--------------------------------------------------------------------------------------------------------


 INCAR:
   SYSTEM = Silicon
   ENCUT = 400
   ISMEAR = 0
   SIGMA = 0.1
   EDIFF = 1E-5
   IBRION = 2
   NSW = 50
   ISIF = 3
   LWAVE = .FALSE.
   LCHARG = .FALSE.

 POTCAR:   PAW Si 02Apr1999                       
 POTCAR:   PAW Si 02Apr1999                       
   VRHFIN =Si: s2p2                                                                                 
   LEXCH  = CA                                                                                      
   EATOM  =   103.4338 eV,    7.6022 Ry                                                             
                                                                                                    
   TITEL  = PAW Si 02Apr1999                                                                        
   LULTRA =        F    use ultrasoft PP ?                                                          
   IUNSCR =        1    unscreen: 0-lin 1-nonlin 2-no                                               
   RPACOR =    1.500    partial core radius                                                         
   POMASS =   28.085; ZVAL   =    4.000    mass and valenz                                          
   RCORE  =    1.900    outmost cutoff radius                                                       
   RWIGS  =    2.480; RWIGS  =    1.312    wigner-seitz radius (au A)                               
   ENMAX  =  245.704; ENMIN  =  184.278 eV                                                          
   ICORE  =        2    local potential                                                             
   LCOR   =        T    correct aug charges                                                         
   LPAW   =        T    paw PP                                                                      
   EAUG   =  322.069                                                                                
   DEXC   =    -.006                                                                                
   RMAX   =    2.941    core radius for proj-oper                                                   
   RAUG   =    1.300    factor for augmentation sphere                                              
   RDEP   =    1.993    core radius for depl-charge                                                 
   QCUT   =   -4.250; QGAM   =    8.499    optimization parameters                                  
                                                                                                    
   Description                                                                                      
     l     E      TYP  RCUT    TYP  RCUT                                                            
     0   .000     23  1.900                                                                         
     0   .000     23  1.900                                                                         
     1   .000     23  1.900                                                                         
     1   .000     23  1.900                                                                         
     2   .000      7  1.900                                                                         
  local pseudopotential read in
  partial core-charges read in
  atomic valenz-charges read in
  non local Contribution for L=           0  read in
    real space projection operators read in
  non local Contribution for L=           0  read in
    real space projection operators read in
  non local Contribution for L=           1  read in
    real space projection operators read in
  non local Contribution for L=           1  read in
    real space projection operators read in
    PAW grid and wavefunctions read in
 
   number of l-projection  operators is LMAX  =           4
   number of lm-projection operators is LMMAX =           8
 
 PAW Si 02Apr1999                       :
 energy of atom  1       EATOM= -103.4338
 kinetic energy error for atom=    0.0011 (will be added to EATOM!!)
 
 
 POSCAR: Si
  positions in direct lattice
  No initial velocities read in
 exchange correlation table for  LEXCH =        2
   RHO(1)=    0.500       N(1)  =     2000
   RHO(2)=  100.500       N(2)  =     4000
 


--------------------------------------------------------------------------------------------------------


 ion  position               nearest neighbor table
   1  0.000  0.000  0.000-
 
  LATTYP: Found a simple cubic cell.
 ALAT       =     3.5000000000
  
  Lattice vectors:
  
 A1 = (   3.5000000000,   0.0000000000,   0.0000000000)
 A2 = (   0.0000000000,   3.5000000000,   0.0000000000)
 A3 = (   0.0000000000,   0.0000000000,   3.5000000000)


Analysis of symmetry for initial positions (statically):
=====================================================================
 Subroutine PRICEL returns:
 Original cell was already a primitive cell.
 

 Routine SETGRP: Setting up the symmetry group for a 
 simple cubic supercell.


 Subroutine GETGRP returns: Found 48 space group operations
 (whereof 48 operations were pure point group operations)
 out of a pool of 48 trial point group operations.


The static configuration has the point symmetry O_h .


Analysis of symmetry for dynamics (positions and initial velocities):
=====================================================================
 Subroutine PRICEL returns:
 Original cell was already a primitive cell.
 

 Routine SETGRP: Setting up the symmetry group for a 
 simple cubic supercell.


 Subroutine GETGRP returns: Found 48 space group operations
 (whereof 48 operations were pure point group operations)
 out of a pool of 48 trial point group operations.


The dynamic configuration has the point symmetry O_h .


 Subroutine INISYM returns: Found 48 space group operations
 (whereof 48 operations are pure point group operations),
 and found     1 'primitive' translations


----------------------------------------------------------------------------------------

                                     Primitive cell                                     

  volume of cell :      42.8750

  direct lattice vectors                    reciprocal lattice vectors
     3.500000000  0.000000000  0.000000000     0.285714286  0.000000000  0.000000000
     0.000000000  3.500000000  0.000000000     0.000000000  0.285714286  0.000000000
     0.000000000  0.000000000  3.500000000     0.000000000  0.000000000  0.285714286

  length of vectors
     3.500000000  3.500000000  3.500000000     0.285714286  0.285714286  0.285714286

  position of ions in fractional coordinates (direct lattice)
     0.000000000  0.000000000  0.000000000

  ion indices of the primitive-cell ions
   primitive index   ion index
                 1           1

----------------------------------------------------------------------------------------

 
 
 KPOINTS: KPOINTS                                 

Automatic generation of k-mesh.
 Grid dimensions read from file:
 generate k-points for:    6    6    6

 Generating k-lattice:

  Cartesian coordinates                     Fractional coordinates (reciprocal lattice)
     0.047619048  0.000000000  0.000000000     0.166666667  0.000000000  0.000000000
     0.000000000  0.047619048  0.000000000     0.000000000  0.166666667  0.000000000
     0.000000000  0.000000000  0.047619048     0.000000000  0.000000000  0.166666667

  Length of vectors
     0.047619048  0.047619048  0.047619048

  Shift w.r.t. Gamma in fractional coordinates (k-lattice)
     0.500000000  0.500000000  0.500000000

 
 Subroutine IBZKPT returns following result:
 ===========================================
 
 Found     10 irreducible k-points:
 
 Following reciprocal coordinates:
            Coordinates               Weight
  0.083333  0.083333  0.083333      8.000000
  0.250000  0.083333  0.083333     24.000000
  0.416667  0.083333  0.083333     24.000000
  0.250000  0.250000  0.083333     24.000000
  0.416667  0.250000  0.083333     48.000000
  0.416667  0.416667  0.083333     24.000000
  0.250000  0.250000  0.250000      8.000000
  0.416667  0.250000  0.250000     24.000000
  0.416667  0.416667  0.250000     24.000000
  0.416667  0.416667  0.416667      8.000000
 
 Following cartesian coordinates:
            Coordinates               Weight
  0.083333  0.083333  0.083333      8.000000
  0.250000  0.083333  0.083333     24.000000
  0.416667  0.083333  0.083333     24.000000
  0.250000  0.250000  0.083333     24.000000
  0.416667  0.250000  0.083333     48.000000
  0.416667  0.416667  0.083333     24.000000
  0.250000  0.250000  0.250000      8.000000
  0.416667  0.250000  0.250000     24.000000
  0.416667  0.416667  0.250000     24.000000
  0.416667  0.416667  0.416667      8.000000
 


--------------------------------------------------------------------------------------------------------




 Dimension of arrays:
   k-points           NKPTS =     10   k-points in BZ     NKDIM =     10   number of bands    NBANDS=      6
   number of dos      NEDOS =    301   number of ions     NIONS =      1
   non local maximal  LDIM  =      4   non local SUM 2l+1 LMDIM =      8
   total plane-waves  NPLWV =   5832
   max r-space proj   IRMAX =      1   max aug-charges    IRDMAX=   4747
   dimension x,y,z NGX =    18 NGY =   18 NGZ =   18
   dimension x,y,z NGXF=    36 NGYF=   36 NGZF=   36
   support grid    NGXF=    36 NGYF=   36 NGZF=   36
   ions per type =               1
   NGX,Y,Z   is equivalent  to a cutoff of   8.55,  8.55,  8.55 a.u.
   NGXF,Y,Z  is equivalent  to a cutoff of  17.10, 17.10, 17.10 a.u.

 SYSTEM =  Silicon                                 
 POSCAR =  Si                                      

 Startparameter for this run:
   NWRITE =      2    write-flag & timer
   PREC   = normal    normal or accurate (medium, high low for compatibility)
   ISTART =      0    job   : 0-new  1-cont  2-samecut
   ICHARG =      2    charge: 1-file 2-atom 10-const
   ISPIN  =      1    spin polarized calculation?
   LNONCOLLINEAR =      F non collinear calculations
   LSORBIT =      F    spin-orbit coupling
   INIWAV =      1    electr: 0-lowe 1-rand  2-diag
   LASPH  =      F    aspherical Exc in radial PAW
 Electronic Relaxation 1
   ENCUT  =  400.0 eV  29.40 Ry    5.42 a.u.   5.71  5.71  5.71*2*pi/ulx,y,z
   ENINI  =  400.0     initial cutoff
   ENAUG  =  322.1 eV  augmentation charge cutoff
   NELM   =     60;   NELMIN=  2; NELMDL=  0     # of ELM steps 
   EDIFF  = 0.1E-04   stopping-criterion for ELM
   LREAL  =      F    real-space projection
   NLSPLINE    = F    spline interpolate recip. space projectors
   LCOMPAT=      F    compatible to vasp.4.4
   GGA_COMPAT  = T    GGA compatible to vasp.4.4-vasp.4.6
   LMAXPAW     = -100 max onsite density
   LMAXMIX     =    2 max onsite mixed and CHGCAR
   VOSKOWN=      0    Vosko Wilk Nusair interpolation
   ROPT   =    0.00000
 Ionic relaxation
   EDIFFG = 0.1E-03   stopping-criterion for IOM
   NSW    =     50    number of steps for IOM
   NBLOCK =      1;   KBLOCK =     50    inner block; outer block 
   IBRION =      2    ionic relax: 0-MD 1-quasi-New 2-CG
   NFREE  =      1    steps in history (QN), initial steepest desc. (CG)
   ISIF   =      3    stress and relaxation
   IWAVPR =     11    prediction:  0-non 1-charg 2-wave 3-comb
   ISYM   =      2    0-nonsym 1-usesym 2-fastsym
   LCORR  =      T    Harris-Foulkes like correction to forces

   POTIM  = 0.5000    time-step for ionic-motion
   TEIN   =    0.0    initial temperature
   TEBEG  =    0.0;   TEEND  =   0.0 temperature during run
   SMASS  =  -3.00    Nose mass-parameter (am)
   estimated Nose-frequenzy (Omega)   =  0.10E-29 period in steps = 0.13E+47 mass=  -0.280E-27a.u.
   SCALEE = 1.0000    scale energy and forces
   NPACO  =    256;   APACO  = 10.0  distance and # of slots for P.C.
   PSTRESS=    0.0 pullay stress

  Mass of Ions in am
   POMASS =  28.09
  Ionic Valenz
   ZVAL   =   4.00
  Atomic Wigner-Seitz radii
   RWIGS  =  -1.00
  virtual crystal weights 
   VCA    =   1.00
   NELECT =       4.0000    total number of electrons
   NUPDOWN=      -1.0000    fix difference up-down

 DOS related values:
   EMIN   =  10.00;   EMAX   =-10.00  energy-range for DOS
   EFERMI =   0.00
   ISMEAR =     0;   SIGMA  =   0.10  broadening in eV -4-tet -1-fermi 0-gaus

 Electronic relaxation 2 (details)
   IALGO  =     38    algorithm
   LDIAG  =      T    sub-space diagonalisation (order eigenvalues)
   LSUBROT=      F    optimize rotation matrix (better conditioning)
   TURBO    =      0    0=normal 1=particle mesh
   IRESTART =      0    0=no restart 2=restart with 2 vectors
   NREBOOT  =      0    no. of reboots
   NMIN     =      0    reboot dimension
   EREF     =   0.00    reference energy to select bands
   IMIX   =      4    mixing-type and parameters
     AMIX     =   0.40;   BMIX     =  1.00
     AMIX_MAG =   1.60;   BMIX_MAG =  1.00
     AMIN     =   0.10
     WC   =   100.;   INIMIX=   1;  MIXPRE=   1;  MAXMIX= -45

 Intra band minimization:
   WEIMIN = 0.0010     energy-eigenvalue tresh-hold
   EBREAK =  0.42E-06  absolut break condition
   DEPER  =   0.30     relativ break condition  

   TIME   =   0.40     timestep for ELM

  volume/ion in A,a.u.               =      42.88       289.33
  Fermi-wavevector in a.u.,A,eV,Ry     =   0.742495  1.403112  7.500873  0.551299
  Thomas-Fermi vector in A             =   1.837387
 
 Write flags
   LWAVE        =      F    write WAVECAR
   LDOWNSAMPLE  =      F    k-point downsampling of WAVECAR
   LCHARG       =      F    write CHGCAR
   LVTOT        =      F    write LOCPOT, total local potential
   LVHAR        =      F    write LOCPOT, Hartree potential only
   LELF         =      F    write electronic localiz. function (ELF)
   LORBIT       =      0    0 simple, 1 ext, 2 COOP (PROOUT), +10 PAW based schemes


 Dipole corrections
   LMONO  =      F    monopole corrections only (constant potential shift)
   LDIPOL =      F    correct potential (dipole corrections)
   IDIPOL =      0    1-x, 2-y, 3-z, 4-all directions 
   EPSILON=  1.0000000 bulk dielectric constant

 Exchange correlation treatment:
   GGA     =    --    GGA type
   LEXCH   =     2    internal setting for exchange type
   LIBXC   =     F    Libxc                    
   VOSKOWN =     0    Vosko Wilk Nusair interpolation
   LHFCALC =     F    Hartree Fock is set to
   LHFONE  =     F    Hartree Fock one center treatment
   AEXX    =    0.0000 exact exchange contribution

 Linear response parameters
   LEPSILON=     F    determine dielectric tensor
   LRPA    =     F    only Hartree local field effects (RPA)
   LNABLA  =     F    use nabla operator in PAW spheres
   LVEL    =     F    velocity operator in full k-point grid
   CSHIFT  =0.1000    complex shift for real part using Kramers Kronig
   OMEGAMAX=  -1.0    maximum frequency
   DEG_THRESHOLD= 0.2000000E-02 threshold for treating states as degnerate
   RTIME   =   -0.100 relaxation time in fs
  (WPLASMAI=    0.000 imaginary part of plasma frequency in eV, 0.658/RTIME)
   DFIELD  = 0.0000000 0.0000000 0.0000000 field for delta impulse in time
 
  Optional k-point grid parameters
   LKPOINTS_OPT  =     F    use optional k-point grid
   KPOINTS_OPT_MODE=     1    mode for optional k-point grid
 
 Orbital magnetization related:
   ORBITALMAG=     F  switch on orbital magnetization
   LCHIMAG   =     F  perturbation theory with respect to B field
   DQ        =  0.001000  dq finite difference perturbation B field
   LLRAUG    =     F  two centre corrections for induced B field



--------------------------------------------------------------------------------------------------------


 conjugate gradient relaxation of ions
 charge density and potential will be updated during run
 non-spin polarized calculation
 Variant of blocked Davidson
 Davidson routine will perform the subspace rotation
 perform sub-space diagonalisation
    after iterative eigenvector-optimisation
 modified Broyden-mixing scheme, WC =      100.0
 initial mixing is a Kerker type mixing with AMIX =  0.4000 and BMIX =      1.0000
 Hartree-type preconditioning will be used
 using additional bands            4
 reciprocal scheme for non local part
 use partial core corrections
 calculate Harris-corrections to forces 
   (improved forces if not selfconsistent)
 use of overlap-Matrix (Vanderbilt PP)
 Gauss-broadening in eV      SIGMA  =   0.10


--------------------------------------------------------------------------------------------------------


  energy-cutoff  :      400.00
  volume of cell :       42.88
      direct lattice vectors                 reciprocal lattice vectors
     3.500000000  0.000000000  0.000000000     0.285714286  0.000000000  0.000000000
     0.000000000  3.500000000  0.000000000     0.000000000  0.285714286  0.000000000
     0.000000000  0.000000000  3.500000000     0.000000000  0.000000000  0.285714286

  length of vectors
     3.500000000  3.500000000  3.500000000     0.285714286  0.285714286  0.285714286


 
 k-points in units of 2pi/SCALE and weight: KPOINTS                                 
   0.08333333  0.08333333  0.08333333       0.037
   0.25000000  0.08333333  0.08333333       0.111
   0.41666667  0.08333333  0.08333333       0.111
   0.25000000  0.25000000  0.08333333       0.111
   0.41666667  0.25000000  0.08333333       0.222
   0.41666667  0.41666667  0.08333333       0.111
   0.25000000  0.25000000  0.25000000       0.037
   0.41666667  0.25000000  0.25000000       0.111
   0.41666667  0.41666667  0.25000000       0.111
   0.41666667  0.41666667  0.41666667       0.037
 
 k-points in reciprocal lattice and weights: KPOINTS                                 
   0.08333333  0.08333333  0.08333333       0.037
   0.25000000  0.08333333  0.08333333       0.111
   0.41666667  0.08333333  0.08333333       0.111
   0.25000000  0.25000000  0.08333333       0.111
   0.41666667  0.25000000  0.08333333       0.222
   0.41666667  0.41666667  0.08333333       0.111
   0.25000000  0.25000000  0.25000000       0.037
   0.41666667  0.25000000  0.25000000       0.111
   0.41666667  0.41666667  0.25000000       0.111
   0.41666667  0.41666667  0.41666667       0.037
 
 position of ions in fractional coordinates (direct lattice) 
   0.00000000  0.00000000  0.00000000
 
 position of ions in cartesian coordinates  (Angst):
   0.00000000  0.00000000  0.00000000
 


--------------------------------------------------------------------------------------------------------


 k-point   1 :   0.0833 0.0833 0.0833  plane waves:     766
 k-point   2 :   0.2500 0.0833 0.0833  plane waves:     783
 k-point   3 :   0.4167 0.0833 0.0833  plane waves:     786
 k-point   4 :   0.2500 0.2500 0.0833  plane waves:     780
 k-point   5 :   0.4167 0.2500 0.0833  plane waves:     783
 k-point   6 :   0.4167 0.4167 0.0833  plane waves:     781
 k-point   7 :   0.2500 0.2500 0.2500  plane waves:     769
 k-point   8 :   0.4167 0.2500 0.2500  plane waves:     777
 k-point   9 :   0.4167 0.4167 0.2500  plane waves:     777
 k-point  10 :   0.4167 0.4167 0.4167  plane waves:     771

 maximum and minimum number of plane-waves per node :       786      766

 maximum number of plane-waves:       786
 maximum index in each direction: 
   IXMAX=    5   IYMAX=    5   IZMAX=    5
   IXMIN=   -6   IYMIN=   -6   IZMIN=   -6


 serial   3D FFT for wavefunctions
 parallel 3D FFT for charge:
    minimum data exchange during FFTs selected (reduces bandwidth)


 total amount of memory used by VASP MPI-rank0    35516. kBytes
=======================================================================

   base      :      30000. kBytes
   nonl-proj :        515. kBytes
   fftplans  :       1676. kBytes
   grid      :       2560. kBytes
   one-center:          3. kBytes
   wavefun   :        762. kBytes
 
     INWAV:  cpu time      0.0000: real time      0.0006
 Broyden mixing: mesh for mixing (old mesh)
   NGX = 11   NGY = 11   NGZ = 11
  (NGX  = 36   NGY  = 36   NGZ  = 36)
  gives a total of   1331 points

 initial charge density was supplied:
 charge density of overlapping atoms calculated
 number of electron       4.0000000 magnetization 
 keeping initial charge density in first step


--------------------------------------------------------------------------------------------------------


 Maximum index for augmentation-charges         4385 (set IRDMAX)


--------------------------------------------------------------------------------------------------------


 First call to EWALD:  gamma=   0.506
 Maximum number of real-space cells 3x 3x 3
 Maximum number of reciprocal cells 3x 3x 3

    FEWALD:  cpu time      0.0007: real time      0.0030


--------------------------------------- Iteration      1(   1)  ---------------------------------------


    POTLOK:  cpu time      0.0049: real time      0.0330
    SETDIJ:  cpu time      0.0007: real time      0.0010
     EDDAV:  cpu time      0.0284: real time      0.0307
       DOS:  cpu time      0.0002: real time      0.0002
    --------------------------------------------
      LOOP:  cpu time      0.0342: real time      0.0650

 eigenvalue-minimisations  :   120
 total energy-change (2. order) : 0.1361411E+01  (-0.1182873E+03)
 number of electron       4.0000000 magnetization 
 augmentation part        4.0000000 magnetization 

 Free energy of the ion-electron system (eV)
  ---------------------------------------------------
  alpha Z        PSCENC =         0.55289725
  Ewald energy   TEWEN  =       -93.38624002
  -Hartree energ DENC   =        -8.87427067
  -exchange      EXHF   =         0.00000000
  -V(xc)+E(xc)   XCENC  =       -10.45010940
  PAW double counting   =        33.55897582      -16.14130609
  entropy T*S    EENTRO =        -0.00002256
  eigenvalues    EBANDS =        -7.33116959
  atomic energy  EATOM  =       103.43265638
  Solvation  Ediel_sol  =         0.00000000
  ---------------------------------------------------
  free energy    TOTEN  =         1.36141113 eV

  energy without entropy =        1.36143369  energy(sigma->0) =        1.36142241


--------------------------------------------------------------------------------------------------------




--------------------------------------- Iteration      1(   2)  ---------------------------------------


     EDDAV:  cpu time      0.0346: real time      0.0372
       DOS:  cpu time      0.0002: real time      0.0002
    --------------------------------------------
      LOOP:  cpu time      0.0347: real time      0.0373

 eigenvalue-minimisations  :   168
 total energy-change (2. order) :-0.4536403E+01  (-0.4306601E+01)
 number of electron       4.0000000 magnetization 
 augmentation part        4.0000000 magnetization 

 Free energy of the ion-electron system (eV)
  ---------------------------------------------------
  alpha Z        PSCENC =         0.55289725
  Ewald energy   TEWEN  =       -93.38624002
  -Hartree energ DENC   =        -8.87427067
  -exchange      EXHF   =         0.00000000
  -V(xc)+E(xc)   XCENC  =       -10.45010940
  PAW double counting   =        33.55897582      -16.14130609
  entropy T*S    EENTRO =        -0.00263298
  eigenvalues    EBANDS =       -11.86496192
  atomic energy  EATOM  =       103.43265638
  Solvation  Ediel_sol  =         0.00000000
  ---------------------------------------------------
  free energy    TOTEN  =        -3.17499163 eV

  energy without entropy =       -3.17235865  energy(sigma->0) =       -3.17367514


--------------------------------------------------------------------------------------------------------




--------------------------------------- Iteration      1(   3)  ---------------------------------------


     EDDAV:  cpu time      0.0239: real time      0.0263
       DOS:  cpu time      0.0001: real time      0.0001
    --------------------------------------------
      LOOP:  cpu time      0.0240: real time      0.0264

 eigenvalue-minimisations  :   126
 total energy-change (2. order) :-0.1201220E+00  (-0.1200610E+00)
 number of electron       4.0000000 magnetization 
 augmentation part        4.0000000 magnetization 

 Free energy of the ion-electron system (eV)
  ---------------------------------------------------
  alpha Z        PSCENC =         0.55289725
  Ewald energy   TEWEN  =       -93.38624002
  -Hartree energ DENC   =        -8.87427067
  -exchange      EXHF   =         0.00000000
  -V(xc)+E(xc)   XCENC  =       -10.45010940
  PAW double counting   =        33.55897582      -16.14130609
  entropy T*S    EENTRO =        -0.00312644
  eigenvalues    EBANDS =       -11.98459048
  atomic energy  EATOM  =       103.43265638
  Solvation  Ediel_sol  =         0.00000000
  ---------------------------------------------------
  free energy    TOTEN  =        -3.29511365 eV

  energy without entropy =       -3.29198721  energy(sigma->0) =       -3.29355043


--------------------------------------------------------------------------------------------------------




--------------------------------------- Iteration      1(   4)  ---------------------------------------


     EDDAV:  cpu time      0.0275: real time      0.0456
       DOS:  cpu time      0.0001: real time      0.0001
    --------------------------------------------
      LOOP:  cpu time      0.0277: real time      0.0481

 eigenvalue-minimisations  :   192
 total energy-change (2. order) :-0.1043901E-02  (-0.1043545E-02)
 number of electron       4.0000000 magnetization 
 augmentation part        4.0000000 magnetization 

 Free energy of the ion-electron system (eV)
  ---------------------------------------------------
  alpha Z        PSCENC =         0.55289725
  Ewald energy   TEWEN  =       -93.38624002
  -Hartree energ DENC   =        -8.87427067
  -exchange      EXHF   =         0.00000000
  -V(xc)+E(xc)   XCENC  =       -10.45010940
  PAW double counting   =        33.55897582      -16.14130609
  entropy T*S    EENTRO =        -0.00317792
  eigenvalues    EBANDS =       -11.98558290
  atomic energy  EATOM  =       103.43265638
  Solvation  Ediel_sol  =         0.00000000
  ---------------------------------------------------
  free energy    TOTEN  =        -3.29615755 eV

  energy without entropy =       -3.29297963  energy(sigma->0) =       -3.29456859


--------------------------------------------------------------------------------------------------------




--------------------------------------- Iteration      1(   5)  ---------------------------------------


     EDDAV:  cpu time      0.0248: real time      0.0271
       DOS:  cpu time      0.0004: real time      0.0011
    CHARGE:  cpu time      0.0020: real time      0.0020
    MIXING:  cpu time      0.0005: real time      0.0005
    --------------------------------------------
      LOOP:  cpu time      0.0276: real time      0.0284

 eigenvalue-minimisations  :   174
 total energy-change (2. order) :-0.7249828E-06  (-0.7249131E-06)
 number of electron       3.9999994 magnetization 
 augmentation part       -0.2731860 magnetization 

 Broyden mixing:
  rms(total) = 0.64364E-01    rms(broyden)= 0.64358E-01
  rms(prec ) = 0.22194E+00
  weight for this iteration     100.00

 Free energy of the ion-electron system (eV)
  ---------------------------------------------------
  alpha Z        PSCENC =         0.55289725
  Ewald energy   TEWEN  =       -93.38624002
  -Hartree energ DENC   =        -8.87427067
  -exchange      EXHF   =         0.00000000
  -V(xc)+E(xc)   XCENC  =       -10.45010940
  PAW double counting   =        33.55897582      -16.14130609
  entropy T*S    EENTRO =        -0.00317792
  eigenvalues    EBANDS =       -11.98558363
  atomic energy  EATOM  =       103.43265638
  Solvation  Ediel_sol  =         0.00000000
  ---------------------------------------------------
  free energy    TOTEN  =        -3.29615828 eV

  energy without entropy =       -3.29298035  energy(sigma->0) =       -3.29456931


--------------------------------------------------------------------------------------------------------




--------------------------------------- Iteration      1(   6)  ---------------------------------------


    POTLOK:  cpu time      0.0031: real time      0.0171
    SETDIJ:  cpu time      0.0004: real time      0.0004
     EDDAV:  cpu time      0.0208: real time      0.0208
       DOS:  cpu time      0.0001: real time      0.0001
    CHARGE:  cpu time      0.0019: real time      0.0019
    MIXING:  cpu time      0.0009: real time      0.0014
    --------------------------------------------
      LOOP:  cpu time      0.0273: real time      0.0418

 eigenvalue-minimisations  :   144
 total energy-change (2. order) : 0.1827598E-01  (-0.1806294E-02)
 number of electron       3.9999994 magnetization 
 augmentation part       -0.2769302 magnetization 

 Broyden mixing:
  rms(total) = 0.35455E-01    rms(broyden)= 0.35454E-01
  rms(prec ) = 0.12205E+00
  weight for this iteration     100.00

 eigenvalues of (default mixing * dielectric matrix)
  average eigenvalue GAMMA=   2.1912
  2.1912

 Free energy of the ion-electron system (eV)
  ---------------------------------------------------
  alpha Z        PSCENC =         0.55289725
  Ewald energy   TEWEN  =       -93.38624002
  -Hartree energ DENC   =        -8.43752735
  -exchange      EXHF   =         0.00000000
  -V(xc)+E(xc)   XCENC  =       -10.49311454
  PAW double counting   =        32.68913563      -15.24388583
  entropy T*S    EENTRO =        -0.00376723
  eigenvalues    EBANDS =       -12.38803658
  atomic energy  EATOM  =       103.43265638
  Solvation  Ediel_sol  =         0.00000000
  ---------------------------------------------------
  free energy    TOTEN  =        -3.27788230 eV

  energy without entropy =       -3.27411507  energy(sigma->0) =       -3.27599869


--------------------------------------------------------------------------------------------------------




--------------------------------------- Iteration      1(   7)  ---------------------------------------


    POTLOK:  cpu time      0.0030: real time      0.0053
    SETDIJ:  cpu time      0.0007: real time      0.0271
     EDDAV:  cpu time      0.0204: real time      0.0204
       DOS:  cpu time      0.0001: real time      0.0001
    CHARGE:  cpu time      0.0018: real time      0.0018
    MIXING:  cpu time      0.0005: real time      0.0012
    --------------------------------------------
      LOOP:  cpu time      0.0265: real time      0.0559

 eigenvalue-minimisations  :   144
 total energy-change (2. order) : 0.6904224E-02  (-0.2580830E-02)
 number of electron       3.9999994 magnetization 
 augmentation part       -0.2815884 magnetization 

 Broyden mixing:
  rms(total) = 0.41884E-02    rms(broyden)= 0.41878E-02
  rms(prec ) = 0.87433E-02
  weight for this iteration     100.00

 eigenvalues of (default mixing * dielectric matrix)
  average eigenvalue GAMMA=   2.4847
  2.1495  2.8199

 Free energy of the ion-electron system (eV)
  ---------------------------------------------------
  alpha Z        PSCENC =         0.55289725
  Ewald energy   TEWEN  =       -93.38624002
  -Hartree energ DENC   =        -7.92999454
  -exchange      EXHF   =         0.00000000
  -V(xc)+E(xc)   XCENC  =       -10.54273751
  PAW double counting   =        31.83689402      -14.36471629
  entropy T*S    EENTRO =        -0.00452620
  eigenvalues    EBANDS =       -12.86521116
  atomic energy  EATOM  =       103.43265638
  Solvation  Ediel_sol  =         0.00000000
  ---------------------------------------------------
  free energy    TOTEN  =        -3.27097808 eV

  energy without entropy =       -3.26645188  energy(sigma->0) =       -3.26871498


--------------------------------------------------------------------------------------------------------




--------------------------------------- Iteration      1(   8)  ---------------------------------------


    POTLOK:  cpu time      0.0031: real time      0.0055
    SETDIJ:  cpu time      0.0004: real time      0.0004
     EDDAV:  cpu time      0.0248: real time      0.0248
       DOS:  cpu time      0.0001: real time      0.0001
    CHARGE:  cpu time      0.0018: real time      0.0018
    MIXING:  cpu time      0.0006: real time      0.0013
    --------------------------------------------
      LOOP:  cpu time      0.0308: real time      0.0340

 eigenvalue-minimisations  :   186
 total energy-change (2. order) :-0.6051231E-04  (-0.2793717E-04)
 number of electron       3.9999994 magnetization 
 augmentation part       -0.2816384 magnetization 

 Broyden mixing:
  rms(total) = 0.43479E-03    rms(broyden)= 0.43455E-03
  rms(prec ) = 0.11206E-02
  weight for this iteration     100.00

 eigenvalues of (default mixing * dielectric matrix)
  average eigenvalue GAMMA=   2.1077
  1.4949  2.8337  1.9946

 Free energy of the ion-electron system (eV)
  ---------------------------------------------------
  alpha Z        PSCENC =         0.55289725
  Ewald energy   TEWEN  =       -93.38624002
  -Hartree energ DENC   =        -7.92633670
  -exchange      EXHF   =         0.00000000
  -V(xc)+E(xc)   XCENC  =       -10.54558167
  PAW double counting   =        32.07668108      -14.61264488
  entropy T*S    EENTRO =        -0.00450632
  eigenvalues    EBANDS =       -12.85796371
  atomic energy  EATOM  =       103.43265638
  Solvation  Ediel_sol  =         0.00000000
  ---------------------------------------------------
  free energy    TOTEN  =        -3.27103859 eV

  energy without entropy =       -3.26653227  energy(sigma->0) =       -3.26878543


--------------------------------------------------------------------------------------------------------




--------------------------------------- Iteration      1(   9)  ---------------------------------------


    POTLOK:  cpu time      0.0031: real time      0.0055
    SETDIJ:  cpu time      0.0006: real time      0.0520
     EDDAV:  cpu time      0.0203: real time      0.0203
       DOS:  cpu time      0.0001: real time      0.0001
    --------------------------------------------
      LOOP:  cpu time      0.0242: real time      0.0780

 eigenvalue-minimisations  :   144
 total energy-change (2. order) :-0.4504260E-06  (-0.2124368E-06)
 number of electron       3.9999994 magnetization 
 augmentation part       -0.2816384 magnetization 

 Free energy of the ion-electron system (eV)
  ---------------------------------------------------
  alpha Z        PSCENC =         0.55289725
  Ewald energy   TEWEN  =       -93.38624002
  -Hartree energ DENC   =        -7.92231757
  -exchange      EXHF   =         0.00000000
  -V(xc)+E(xc)   XCENC  =       -10.54628331
  PAW double counting   =        32.07120993      -14.60717777
  entropy T*S    EENTRO =        -0.00451099
  eigenvalues    EBANDS =       -12.86127293
  atomic energy  EATOM  =       103.43265638
  Solvation  Ediel_sol  =         0.00000000
  ---------------------------------------------------
  free energy    TOTEN  =        -3.27103904 eV

  energy without entropy =       -3.26652805  energy(sigma->0) =       -3.26878354


--------------------------------------------------------------------------------------------------------




 average (electrostatic) potential at core
  the test charge radii are     0.9892
  (the norm of the test charge is              1.0000)
       1 -91.5870
 
 
 
 E-fermi :   0.3836     XC(G=0):  -7.2900     alpha+bet : -5.6445

 Fermi energy:         0.3836492594

 k-point     1 :       0.0833    0.0833    0.0833
  band No.  band energies     occupation 
      1      -7.4087      2.00000
      2       2.6411      0.00000
      3       2.6630      0.00000
      4       2.6630      0.00000
      5       7.7124      0.00000
      6       7.8687      0.00000

 k-point     2 :       0.2500    0.0833    0.0833
  band No.  band energies     occupation 
      1      -6.9581      2.00000
      2       0.2828      1.84602
      3       2.9927      0.00000
      4       3.0008      0.00000
      5       8.2164      0.00000
      6       8.2776      0.00000

 k-point     3 :       0.4167    0.0833    0.0833
  band No.  band energies     occupation 
      1      -6.3383      2.00000
      2      -1.4608      2.00000
      3       3.3972      0.00000
      4       3.4425      0.00000
      5       8.7001      0.00000
      6       8.8320      0.00000

 k-point     4 :       0.2500    0.2500    0.0833
  band No.  band energies     occupation 
      1      -6.5116      2.00000
      2       0.6709      0.00005
      3       0.7164      0.00000
      4       3.3227      0.00000
      5       7.9720      0.00000
      6       8.9650      0.00000

 k-point     5 :       0.4167    0.2500    0.0833
  band No.  band energies     occupation 
      1      -5.8994      2.00000
      2      -1.0220      2.00000
      3       1.2370      0.00000
      4       3.7235      0.00000
      5       6.5303      0.00000
      6       9.5149      0.00000

 k-point     6 :       0.4167    0.4167    0.0833
  band No.  band energies     occupation 
      1      -5.3011      2.00000
      2      -0.4349      2.00000
      3      -0.4185      2.00000
      4       4.0880      0.00000
      5       4.7511      0.00000
      6      10.1788      0.00000

 k-point     7 :       0.2500    0.2500    0.2500
  band No.  band energies     occupation 
      1      -6.0687      2.00000
      2       1.0860      0.00000
      3       1.0918      0.00000
      4       1.0918      0.00000
      5       7.9170      0.00000
      6       9.2610      0.00000

 k-point     8 :       0.4167    0.2500    0.2500
  band No.  band energies     occupation 
      1      -5.4629      2.00000
      2      -0.5975      2.00000
      3       1.5705      0.00000
      4       1.6452      0.00000
      5       6.6839      0.00000
      6       7.6126      0.00000

 k-point     9 :       0.4167    0.4167    0.2500
  band No.  band energies     occupation 
      1      -4.8683      2.00000
      2      -0.0325      2.00000
      3      -0.0277      2.00000
      4       2.0798      0.00000
      5       5.2988      0.00000
      6       7.8994      0.00000

 k-point    10 :       0.4167    0.4167    0.4167
  band No.  band energies     occupation 
      1      -4.2792      2.00000
      2       0.4773      0.18516
      3       0.4773      0.18516
      4       0.5030      0.09147
      5       5.9772      0.00000
      6       6.3521      0.00000


--------------------------------------------------------------------------------------------------------


 soft charge-density along one line, spin component           1
         0         1         2         3         4         5         6         7         8         9
 total charge-density along one line
 
 pseudopotential strength for first ion, spin component:           1
 20.208   0.005   0.000   0.000  -0.000  -0.000  -0.000   0.000
  0.005   0.006  -0.000  -0.000   0.000   0.000   0.000  -0.000
  0.000  -0.000   4.451  -0.000  -0.000  -0.000   0.000   0.000
  0.000  -0.000  -0.000   4.451   0.000   0.000  -0.000  -0.000
 -0.000   0.000  -0.000   0.000   4.451   0.000  -0.000  -0.000
 -0.000   0.000  -0.000   0.000   0.000   0.005  -0.000  -0.000
 -0.000   0.000   0.000  -0.000  -0.000  -0.000   0.005   0.000
  0.000  -0.000   0.000  -0.000  -0.000  -0.000   0.000   0.005
 total augmentation occupancy for first ion, spin component:           1
  1.977   0.165   0.000   0.000   0.000   0.000   0.000   0.000
  0.165   0.141   0.000   0.000   0.000   0.000   0.000   0.000
  0.000   0.000   0.589   0.000   0.000  -0.092  -0.000   0.000
  0.000   0.000   0.000   0.589  -0.000   0.000  -0.092  -0.000
  0.000   0.000   0.000   0.000   0.589  -0.000  -0.000  -0.092
  0.000   0.000  -0.092  -0.000  -0.000   0.022  -0.000  -0.000
  0.000   0.000  -0.000  -0.092   0.000  -0.000   0.022  -0.000
  0.000   0.000  -0.000  -0.000  -0.092  -0.000  -0.000   0.022


------------------------ aborting loop because EDIFF is reached ----------------------------------------


    CHARGE:  cpu time      0.0019: real time      0.0019
    FORLOC:  cpu time      0.0008: real time      0.0008
    FORNL :  cpu time      0.0019: real time      0.0041
    STRESS:  cpu time      0.0170: real time      0.0170
    FORCOR:  cpu time      0.0033: real time      0.0033
    FORHAR:  cpu time      0.0027: real time      0.0028
    MIXING:  cpu time      0.0005: real time      0.0005
    OFIELD:  cpu time      0.0000: real time      0.0025

  FORCE on cell =-STRESS in cart. coord.  units (eV):
  Direction    XX          YY          ZZ          XY          YZ          ZX
  --------------------------------------------------------------------------------------
  Alpha Z     0.55290     0.55290     0.55290
  Ewald     -31.12875   -31.12875   -31.12875     0.00000    -0.00000    -0.00000
  Hartree     2.64078     2.64078     2.64078    -0.00000    -0.00000    -0.00000
  E(xc)     -11.07285   -11.07285   -11.07285    -0.00000     0.00000     0.00000
  Local     -18.95332   -18.95332   -18.95332    -0.00000    -0.00000     0.00000
  n-local    43.32095    39.26819    37.75938     0.01893    -0.04671    -0.00953
  augment    -7.32865    -7.32865    -7.32865     0.00000     0.00000    -0.00000
  Kinetic    32.53713    20.84587    13.16809    -0.84994     0.64894    -0.31924
  Fock        0.00000     0.00000     0.00000     0.00000     0.00000     0.00000
  -------------------------------------------------------------------------------------
  Total      -2.99003    -2.99003    -2.99003    -0.00000     0.00000    -0.00000
  in kB    -111.73307  -111.73307  -111.73307    -0.00000     0.00000    -0.00000
  external pressure =     -111.73 kB  Pullay stress =        0.00 kB


 VOLUME and BASIS-vectors are now :
 -----------------------------------------------------------------------------
  energy-cutoff  :      400.00
  volume of cell :       42.88
      direct lattice vectors                 reciprocal lattice vectors
     3.500000000  0.000000000  0.000000000     0.285714286  0.000000000  0.000000000
     0.000000000  3.500000000  0.000000000     0.000000000  0.285714286  0.000000000
     0.000000000  0.000000000  3.500000000     0.000000000  0.000000000  0.285714286

  length of vectors
     3.500000000  3.500000000  3.500000000     0.285714286  0.285714286  0.285714286


 FORCES acting on ions
    electron-ion (+dipol)            ewald-force                    non-local-force                 convergence-correction
 -----------------------------------------------------------------------------------------------
   -.206E-15 0.889E-16 0.140E-14   0.331E-15 0.405E-16 -.286E-16   0.513E-22 0.463E-22 0.529E-22   0.263E-15 0.285E-15 0.441E-15
 -----------------------------------------------------------------------------------------------
   -.206E-15 0.889E-16 0.140E-14   0.331E-15 0.405E-16 -.286E-16   0.513E-22 0.463E-22 0.529E-22   0.263E-15 0.285E-15 0.441E-15
 
 
 POSITION                                       TOTAL-FORCE (eV/Angst)
 -----------------------------------------------------------------------------------
      0.00000      0.00000      0.00000         0.000000      0.000000      0.000000
 -----------------------------------------------------------------------------------
    total drift:                                0.000000      0.000000      0.000000


--------------------------------------------------------------------------------------------------------



  FREE ENERGIE OF THE ION-ELECTRON SYSTEM (eV)
  ---------------------------------------------------
  free  energy   TOTEN  =        -3.27103904 eV

  energy  without entropy=       -3.26652805  energy(sigma->0) =       -3.26878354
 


--------------------------------------------------------------------------------------------------------


    POTLOK:  cpu time      0.0032: real time      0.0032


--------------------------------------------------------------------------------------------------------




--------------------------------------------------------------------------------------------------------


    WAVPRE:  cpu time      0.0033: real time      0.0398
    FEWALD:  cpu time      0.0000: real time      0.0000
    GENKIN:  cpu time      0.0007: real time      0.0007
    ORTHCH:  cpu time      0.0005: real time      0.0005
     LOOP+:  cpu time      0.2962: real time      0.5336


--------------------------------------- Iteration      2(   1)  ---------------------------------------


    POTLOK:  cpu time      0.0030: real time      0.0056
    SETDIJ:  cpu time      0.0004: real time      0.0004
     EDDAV:  cpu time      0.0195: real time      0.0196
       DOS:  cpu time      0.0001: real time      0.0001
    CHARGE:  cpu time      0.0018: real time      0.0018
    MIXING:  cpu time      0.0005: real time      0.0013
    --------------------------------------------
      LOOP:  cpu time      0.0254: real time      0.0288

 eigenvalue-minimisations  :   132
 total energy-change (2. order) :-0.2535615E+01  (-0.3850004E+01)
 number of electron       4.0000002 magnetization 
 augmentation part       -0.2244946 magnetization 

 Broyden mixing:
  rms(total) = 0.40669E+00    rms(broyden)= 0.40668E+00
  rms(prec ) = 0.14834E+01
  weight for this iteration     100.00

 Free energy of the ion-electron system (eV)
  ---------------------------------------------------
  alpha Z        PSCENC =         0.88226487
  Ewald energy   TEWEN  =      -109.12755100
  -Hartree energ DENC   =        -9.25773376
  -exchange      EXHF   =         0.00000000
  -V(xc)+E(xc)   XCENC  =        -9.81772519
  PAW double counting   =        32.05245021      -14.58799855
  entropy T*S    EENTRO =        -0.00003480
  eigenvalues    EBANDS =         0.61701853
  atomic energy  EATOM  =       103.43265638
  Solvation  Ediel_sol  =         0.00000000
  ---------------------------------------------------
  free energy    TOTEN  =        -5.80665331 eV

  energy without entropy =       -5.80661851  energy(sigma->0) =       -5.80663591


--------------------------------------------------------------------------------------------------------




--------------------------------------- Iteration      2(   2)  ---------------------------------------


    POTLOK:  cpu time      0.0029: real time      0.0029
    SETDIJ:  cpu time      0.0005: real time      0.0005
     EDDAV:  cpu time      0.0203: real time      0.0373
       DOS:  cpu time      0.0001: real time      0.0001
    CHARGE:  cpu time      0.0018: real time      0.0018
    MIXING:  cpu time      0.0007: real time      0.0014
    --------------------------------------------
      LOOP:  cpu time      0.0264: real time      0.0441

 eigenvalue-minimisations  :   144
 total energy-change (2. order) : 0.7657339E+00  (-0.5629953E-01)
 number of electron       4.0000003 magnetization 
 augmentation part       -0.2418314 magnetization 

 Broyden mixing:
  rms(total) = 0.22709E+00    rms(broyden)= 0.22709E+00
  rms(prec ) = 0.82906E+00
  weight for this iteration     100.00

 eigenvalues of (default mixing * dielectric matrix)
  average eigenvalue GAMMA=   2.2423
  2.2423

 Free energy of the ion-electron system (eV)
  ---------------------------------------------------
  alpha Z        PSCENC =         0.88226487
  Ewald energy   TEWEN  =      -109.12755100
  -Hartree energ DENC   =        -6.68948872
  -exchange      EXHF   =         0.00000000
  -V(xc)+E(xc)   XCENC  =        -9.94236538
  PAW double counting   =        31.00966929      -13.51058700
  entropy T*S    EENTRO =        -0.00005356
  eigenvalues    EBANDS =        -1.09546429
  atomic energy  EATOM  =       103.43265638
  Solvation  Ediel_sol  =         0.00000000
  ---------------------------------------------------
  free energy    TOTEN  =        -5.04091943 eV

  energy without entropy =       -5.04086587  energy(sigma->0) =       -5.04089265


--------------------------------------------------------------------------------------------------------




--------------------------------------- Iteration      2(   3)  ---------------------------------------


    POTLOK:  cpu time      0.0029: real time      0.0053
    SETDIJ:  cpu time      0.0009: real time      0.0085
     EDDAV:  cpu time      0.0174: real time      0.0174
       DOS:  cpu time      0.0001: real time      0.0001
    CHARGE:  cpu time      0.0017: real time      0.0017
    MIXING:  cpu time      0.0005: real time      0.0005
    --------------------------------------------
      LOOP:  cpu time      0.0234: real time      0.0335

 eigenvalue-minimisations  :   120
 total energy-change (2. order) : 0.3583322E+00  (-0.8144137E-01)
 number of electron       4.0000003 magnetization 
 augmentation part       -0.2689970 magnetization 

 Broyden mixing:
  rms(total) = 0.16615E-01    rms(broyden)= 0.16614E-01
  rms(prec ) = 0.32587E-01
  weight for this iteration     100.00

 eigenvalues of (default mixing * dielectric matrix)
  average eigenvalue GAMMA=   1.9854
  1.7300  2.2407

 Free energy of the ion-electron system (eV)
  ---------------------------------------------------
  alpha Z        PSCENC =         0.88226487
  Ewald energy   TEWEN  =      -109.12755100
  -Hartree energ DENC   =        -4.20055965
  -exchange      EXHF   =         0.00000000
  -V(xc)+E(xc)   XCENC  =        -9.96144225
  PAW double counting   =        31.05670278      -13.55316281
  entropy T*S    EENTRO =        -0.00025940
  eigenvalues    EBANDS =        -3.21123619
  atomic energy  EATOM  =       103.43265638
  Solvation  Ediel_sol  =         0.00000000
  ---------------------------------------------------
  free energy    TOTEN  =        -4.68258727 eV

  energy without entropy =       -4.68232787  energy(sigma->0) =       -4.68245757


--------------------------------------------------------------------------------------------------------




--------------------------------------- Iteration      2(   4)  ---------------------------------------


    POTLOK:  cpu time      0.0029: real time      0.0051
    SETDIJ:  cpu time      0.0005: real time      0.0178
     EDDAV:  cpu time      0.0240: real time      0.0240
       DOS:  cpu time      0.0001: real time      0.0001
    CHARGE:  cpu time      0.0018: real time      0.0018
    MIXING:  cpu time      0.0007: real time      0.0013
    --------------------------------------------
      LOOP:  cpu time      0.0301: real time      0.0502

 eigenvalue-minimisations  :   180
 total energy-change (2. order) : 0.1618374E-02  (-0.5079091E-03)
 number of electron       4.0000003 magnetization 
 augmentation part       -0.2695046 magnetization 

 Broyden mixing:
  rms(total) = 0.51863E-02    rms(broyden)= 0.51860E-02
  rms(prec ) = 0.10132E-01
  weight for this iteration     100.00

 eigenvalues of (default mixing * dielectric matrix)
  average eigenvalue GAMMA=   1.9646
  1.1437  2.1402  2.6097

 Free energy of the ion-electron system (eV)
  ---------------------------------------------------
  alpha Z        PSCENC =         0.88226487
  Ewald energy   TEWEN  =      -109.12755100
  -Hartree energ DENC   =        -4.23558689
  -exchange      EXHF   =         0.00000000
  -V(xc)+E(xc)   XCENC  =        -9.94183248
  PAW double counting   =        32.25325107      -14.79024600
  entropy T*S    EENTRO =        -0.00024310
  eigenvalues    EBANDS =        -3.15368175
  atomic energy  EATOM  =       103.43265638
  Solvation  Ediel_sol  =         0.00000000
  ---------------------------------------------------
  free energy    TOTEN  =        -4.68096890 eV

  energy without entropy =       -4.68072580  energy(sigma->0) =       -4.68084735


--------------------------------------------------------------------------------------------------------




--------------------------------------- Iteration      2(   5)  ---------------------------------------


    POTLOK:  cpu time      0.0033: real time      0.0123
    SETDIJ:  cpu time      0.0005: real time      0.0005
     EDDAV:  cpu time      0.0215: real time      0.0238
       DOS:  cpu time      0.0001: real time      0.0001
    CHARGE:  cpu time      0.0019: real time      0.0019
    MIXING:  cpu time      0.0008: real time      0.0015
    --------------------------------------------
      LOOP:  cpu time      0.0281: real time      0.0401

 eigenvalue-minimisations  :   156
 total energy-change (2. order) : 0.1988144E-03  (-0.5055477E-05)
 number of electron       4.0000003 magnetization 
 augmentation part       -0.2696956 magnetization 

 Broyden mixing:
  rms(total) = 0.73887E-03    rms(broyden)= 0.73877E-03
  rms(prec ) = 0.13303E-02
  weight for this iteration     100.00

 eigenvalues of (default mixing * dielectric matrix)
  average eigenvalue GAMMA=   1.8136
  2.6034  2.1883  0.9759  1.4867

 Free energy of the ion-electron system (eV)
  ---------------------------------------------------
  alpha Z        PSCENC =         0.88226487
  Ewald energy   TEWEN  =      -109.12755100
  -Hartree energ DENC   =        -4.22988762
  -exchange      EXHF   =         0.00000000
  -V(xc)+E(xc)   XCENC  =        -9.93392617
  PAW double counting   =        32.69570861      -15.24961674
  entropy T*S    EENTRO =        -0.00024141
  eigenvalues    EBANDS =        -3.15017699
  atomic energy  EATOM  =       103.43265638
  Solvation  Ediel_sol  =         0.00000000
  ---------------------------------------------------
  free energy    TOTEN  =        -4.68077009 eV

  energy without entropy =       -4.68052867  energy(sigma->0) =       -4.68064938


--------------------------------------------------------------------------------------------------------




--------------------------------------- Iteration      2(   6)  ---------------------------------------


    POTLOK:  cpu time      0.0033: real time      0.0304
    SETDIJ:  cpu time      0.0005: real time      0.0005
     EDDAV:  cpu time      0.0205: real time      0.0233
       DOS:  cpu time      0.0001: real time      0.0001
    --------------------------------------------
      LOOP:  cpu time      0.0244: real time      0.0568

 eigenvalue-minimisations  :   144
 total energy-change (2. order) :-0.3927584E-06  (-0.2036681E-06)
 number of electron       4.0000003 magnetization 
 augmentation part       -0.2696956 magnetization 

 Free energy of the ion-electron system (eV)
  ---------------------------------------------------
  alpha Z        PSCENC =         0.88226487
  Ewald energy   TEWEN  =      -109.12755100
  -Hartree energ DENC   =        -4.23250393
  -exchange      EXHF   =         0.00000000
  -V(xc)+E(xc)   XCENC  =        -9.93368665
  PAW double counting   =        32.69066819      -15.24543701
  entropy T*S    EENTRO =        -0.00024059
  eigenvalues    EBANDS =        -3.14694073
  atomic energy  EATOM  =       103.43265638
  Solvation  Ediel_sol  =         0.00000000
  ---------------------------------------------------
  free energy    TOTEN  =        -4.68077048 eV

  energy without entropy =       -4.68052989  energy(sigma->0) =       -4.68065018


--------------------------------------------------------------------------------------------------------




 average (electrostatic) potential at core
  the test charge radii are     0.9892
  (the norm of the test charge is              1.0000)
       1 -88.2438
 
 
 
 E-fermi :   3.2766     XC(G=0):  -8.8356     alpha+bet : -9.0071

 Fermi energy:         3.2766256079

 k-point     1 :       0.0833    0.0833    0.0833
  band No.  band energies     occupation 
      1      -6.2207      2.00000
      2       6.7016      0.00000
      3       6.7016      0.00000
      4       7.2610      0.00000
      5      12.1723      0.00000
      6      12.1723      0.00000

 k-point     2 :       0.2500    0.0833    0.0833
  band No.  band energies     occupation 
      1      -5.4340      2.00000
      2       3.0780      1.99504
      3       7.3091      0.00000
      4       7.7743      0.00000
      5      12.7638      0.00000
      6      14.1200      0.00000

 k-point     3 :       0.4167    0.0833    0.0833
  band No.  band energies     occupation 
      1      -4.1382      2.00000
      2       0.1773      2.00000
      3       8.1576      0.00000
      4       8.7285      0.00000
      5      13.5610      0.00000
      6      13.6741      0.00000

 k-point     4 :       0.2500    0.2500    0.0833
  band No.  band energies     occupation 
      1      -4.6478      2.00000
      2       3.5289      0.00036
      3       4.0484      0.00000
      4       8.2010      0.00000
      5      12.6366      0.00000
      6      14.3219      0.00000

 k-point     5 :       0.4167    0.2500    0.0833
  band No.  band energies     occupation 
      1      -3.3480      2.00000
      2       0.8869      2.00000
      3       4.8447      0.00000
      4       9.0854      0.00000
      5      10.1218      0.00000
      6      14.7796      0.00000

 k-point     6 :       0.4167    0.4167    0.0833
  band No.  band energies     occupation 
      1      -2.0227      2.00000
      2       1.8693      2.00000
      3       2.0903      2.00000
      4       7.3414      0.00000
      5       9.9259      0.00000
      6      15.6798      0.00000

 k-point     7 :       0.2500    0.2500    0.2500
  band No.  band energies     occupation 
      1      -3.8620      2.00000
      2       4.1699      0.00000
      3       4.1699      0.00000
      4       5.1909      0.00000
      5      12.9584      0.00000
      6      13.7962      0.00000

 k-point     8 :       0.4167    0.2500    0.2500
  band No.  band energies     occupation 
      1      -2.5575      2.00000
      2       1.5830      2.00000
      3       5.0852      0.00000
      4       6.0678      0.00000
      5      10.5532      0.00000
      6      11.2290      0.00000

 k-point     9 :       0.4167    0.4167    0.2500
  band No.  band energies     occupation 
      1      -1.2229      2.00000
      2       2.5235      2.00000
      3       2.7687      2.00000
      4       6.6312      0.00000
      5       8.1257      0.00000
      6      11.9728      0.00000

 k-point    10 :       0.4167    0.4167    0.4167
  band No.  band energies     occupation 
      1       0.1622      2.00000
      2       3.4677      0.00690
      3       3.4677      0.00690
      4       4.1294      0.00000
      5       9.1589      0.00000
      6       9.4852      0.00000


--------------------------------------------------------------------------------------------------------


 soft charge-density along one line, spin component           1
         0         1         2         3         4         5         6         7         8         9
 total charge-density along one line
 
 pseudopotential strength for first ion, spin component:           1
 19.799   0.002   0.000   0.000   0.000  -0.000  -0.000  -0.000
  0.002   0.006  -0.000  -0.000  -0.000   0.000   0.000   0.000
  0.000  -0.000   4.392   0.000   0.000  -0.002  -0.000  -0.000
  0.000  -0.000   0.000   4.392  -0.000  -0.000  -0.002   0.000
  0.000  -0.000   0.000  -0.000   4.392  -0.000   0.000  -0.002
 -0.000   0.000  -0.002  -0.000  -0.000   0.005   0.000   0.000
 -0.000   0.000  -0.000  -0.002   0.000   0.000   0.005  -0.000
 -0.000   0.000  -0.000   0.000  -0.002   0.000  -0.000   0.005
 total augmentation occupancy for first ion, spin component:           1
  1.852  -0.001   0.000   0.000   0.000   0.000   0.000   0.000
 -0.001   0.349   0.000   0.000   0.000   0.000   0.000   0.000
  0.000   0.000   0.667   0.000   0.000  -0.211   0.000   0.000
  0.000   0.000   0.000   0.667  -0.000  -0.000  -0.211  -0.000
  0.000   0.000   0.000   0.000   0.667   0.000   0.000  -0.211
  0.000   0.000  -0.211  -0.000   0.000   0.091   0.000  -0.000
  0.000   0.000   0.000  -0.211   0.000   0.000   0.091  -0.000
  0.000   0.000   0.000  -0.000  -0.211  -0.000  -0.000   0.091


------------------------ aborting loop because EDIFF is reached ----------------------------------------


    CHARGE:  cpu time      0.0018: real time      0.0018
    FORLOC:  cpu time      0.0007: real time      0.0007
    FORNL :  cpu time      0.0022: real time      0.0022
    STRESS:  cpu time      0.0175: real time      0.0175
    FORCOR:  cpu time      0.0034: real time      0.0034
    FORHAR:  cpu time      0.0029: real time      0.0091
    MIXING:  cpu time      0.0005: real time      0.0005
    OFIELD:  cpu time      0.0000: real time      0.0020

  FORCE on cell =-STRESS in cart. coord.  units (eV):
  Direction    XX          YY          ZZ          XY          YZ          ZX
  --------------------------------------------------------------------------------------
  Alpha Z     0.88226     0.88226     0.88226
  Ewald     -36.37585   -36.37585   -36.37585    -0.00000     0.00000     0.00000
  Hartree     1.41072     1.41072     1.41072    -0.00000    -0.00000    -0.00000
  E(xc)     -11.72665   -11.72665   -11.72665     0.00000    -0.00000     0.00000
  Local     -13.37213   -13.37213   -13.37213    -0.00000    -0.00000    -0.00000
  n-local    41.31921    38.74364    38.47075    -0.06483    -0.16823    -0.21748
  augment    -7.01159    -7.01159    -7.01159     0.00000     0.00000     0.00000
  Kinetic    38.64627    21.97286    10.90915    -1.80746     1.62385    -0.49115
  Fock        0.00000     0.00000     0.00000     0.00000     0.00000     0.00000
  -------------------------------------------------------------------------------------
  Total      -2.83928    -2.83928    -2.83928    -0.00000    -0.00000    -0.00000
  in kB    -169.30462  -169.30462  -169.30462    -0.00000    -0.00000    -0.00000
  external pressure =     -169.30 kB  Pullay stress =        0.00 kB


 VOLUME and BASIS-vectors are now :
 -----------------------------------------------------------------------------
  energy-cutoff  :      400.00
  volume of cell :       26.87
      direct lattice vectors                 reciprocal lattice vectors
     2.995135849  0.000000000 -0.000000000     0.333874672  0.000000000 -0.000000000
    -0.000000000  2.995135849 -0.000000000    -0.000000000  0.333874672 -0.000000000
     0.000000000  0.000000000  2.995135849     0.000000000  0.000000000  0.333874672

  length of vectors
     2.995135849  2.995135849  2.995135849     0.333874672  0.333874672  0.333874672


 FORCES acting on ions
    electron-ion (+dipol)            ewald-force                    non-local-force                 convergence-correction
 -----------------------------------------------------------------------------------------------
   -.286E-15 -.145E-14 -.577E-15   0.440E-16 0.114E-15 0.920E-16   0.145E-23 0.781E-24 0.476E-24   0.187E-15 0.154E-15 0.244E-15
 -----------------------------------------------------------------------------------------------
   -.286E-15 -.145E-14 -.577E-15   0.440E-16 0.114E-15 0.920E-16   0.145E-23 0.781E-24 0.476E-24   0.187E-15 0.154E-15 0.244E-15
 
 
 POSITION                                       TOTAL-FORCE (eV/Angst)
 -----------------------------------------------------------------------------------
      0.00000      0.00000      0.00000        -0.000000     -0.000000     -0.000000
 -----------------------------------------------------------------------------------
    total drift:                               -0.000000     -0.000000     -0.000000


--------------------------------------------------------------------------------------------------------



  FREE ENERGIE OF THE ION-ELECTRON SYSTEM (eV)
  ---------------------------------------------------
  free  energy   TOTEN  =        -4.68077048 eV

  energy  without entropy=       -4.68052989  energy(sigma->0) =       -4.68065018
 
 d Force = 0.0000000E+00[ 0.000E+00, 0.000E+00]  d Energy = 0.1409731E+01-0.141E+01
 d Force = 0.0000000E+00[ 0.000E+00, 0.000E+00]  d Ewald  = 0.1574131E+02-0.157E+02


--------------------------------------------------------------------------------------------------------


    POTLOK:  cpu time      0.0033: real time      0.0033


--------------------------------------------------------------------------------------------------------


 Steepest descent step on ions:
 trial-energy change:   -1.409731  1 .order   -1.261289   -1.293907   -1.228671
  (g-gl).g = 0.129E+01      g.g   = 0.129E+01  gl.gl    = 0.000E+00
 g(Force)  = 0.161E-66   g(Stress)= 0.129E+01 ortho     = 0.000E+00
 gamma     =   0.00000
 trial     =   1.00000
 opt step  =   4.00000  (harmonic =  19.83421) maximal distance =0.00000000
 next E    =   -16.102851   (d E  = -12.83181)


--------------------------------------------------------------------------------------------------------


    WAVPRE:  cpu time      0.0031: real time      0.0143
    FEWALD:  cpu time      0.0000: real time      0.0000
    GENKIN:  cpu time      0.0007: real time      0.0007
    ORTHCH:  cpu time      0.0005: real time      0.0005
     LOOP+:  cpu time      0.1968: real time      0.3400


--------------------------------------- Iteration      3(   1)  ---------------------------------------


    POTLOK:  cpu time      0.0028: real time      0.0028
    SETDIJ:  cpu time      0.0049: real time      0.0049
     EDDAV:  cpu time      0.0240: real time      0.0256
       DOS:  cpu time      0.0001: real time      0.0001
    CHARGE:  cpu time      0.0045: real time      0.0045
    MIXING:  cpu time      0.0004: real time      0.0004
    --------------------------------------------
      LOOP:  cpu time      0.0368: real time      0.0383

 eigenvalue-minimisations  :   180
 total energy-change (2. order) : 0.2273759E+02  (-0.8328383E+02)
 number of electron       4.0000000 magnetization 
 augmentation part       -0.4156386 magnetization 

 Broyden mixing:
  rms(total) = 0.21697E+01    rms(broyden)= 0.21697E+01
  rms(prec ) = 0.90893E+01
  weight for this iteration     100.00

 Free energy of the ion-electron system (eV)
  ---------------------------------------------------
  alpha Z        PSCENC =         7.30440996
  Ewald energy   TEWEN  =      -220.76478224
  -Hartree energ DENC   =        -8.56174884
  -exchange      EXHF   =         0.00000000
  -V(xc)+E(xc)   XCENC  =        -5.78586576
  PAW double counting   =        32.65647909      -15.21061004
  entropy T*S    EENTRO =        -0.00986374
  eigenvalues    EBANDS =       124.99614298
  atomic energy  EATOM  =       103.43265638
  Solvation  Ediel_sol  =         0.00000000
  ---------------------------------------------------
  free energy    TOTEN  =        18.05681779 eV

  energy without entropy =       18.06668153  energy(sigma->0) =       18.06174966


--------------------------------------------------------------------------------------------------------




--------------------------------------- Iteration      3(   2)  ---------------------------------------


    POTLOK:  cpu time      0.0032: real time      0.0039
    SETDIJ:  cpu time      0.0022: real time      0.0180
     EDDAV:  cpu time      0.0190: real time      0.0190
       DOS:  cpu time      0.0001: real time      0.0001
    CHARGE:  cpu time      0.0036: real time      0.0036
    MIXING:  cpu time      0.0005: real time      0.0005
    --------------------------------------------
      LOOP:  cpu time      0.0286: real time      0.0450

 eigenvalue-minimisations  :   132
 total energy-change (2. order) : 0.8325039E+01  (-0.1835841E+00)
 number of electron       4.0000000 magnetization 
 augmentation part       -0.4472260 magnetization 

 Broyden mixing:
  rms(total) = 0.12775E+01    rms(broyden)= 0.12775E+01
  rms(prec ) = 0.53211E+01
  weight for this iteration     100.00

 eigenvalues of (default mixing * dielectric matrix)
  average eigenvalue GAMMA=   2.4209
  2.4209

 Free energy of the ion-electron system (eV)
  ---------------------------------------------------
  alpha Z        PSCENC =         7.30440996
  Ewald energy   TEWEN  =      -220.76478224
  -Hartree energ DENC   =        -1.55184730
  -exchange      EXHF   =         0.00000000
  -V(xc)+E(xc)   XCENC  =        -5.88877153
  PAW double counting   =        67.50643229      -50.84061642
  entropy T*S    EENTRO =        -0.00916811
  eigenvalues    EBANDS =       127.19354413
  atomic energy  EATOM  =       103.43265638
  Solvation  Ediel_sol  =         0.00000000
  ---------------------------------------------------
  free energy    TOTEN  =        26.38185717 eV

  energy without entropy =       26.39102528  energy(sigma->0) =       26.38644122


--------------------------------------------------------------------------------------------------------




--------------------------------------- Iteration      3(   3)  ---------------------------------------


    POTLOK:  cpu time      0.0032: real time      0.0092
    SETDIJ:  cpu time      0.0021: real time      0.0021
     EDDAV:  cpu time      0.0205: real time      0.0238
       DOS:  cpu time      0.0001: real time      0.0001
    CHARGE:  cpu time      0.0035: real time      0.0062
    MIXING:  cpu time      0.0006: real time      0.0026
    --------------------------------------------
      LOOP:  cpu time      0.0302: real time      0.0478

 eigenvalue-minimisations  :   144
 total energy-change (2. order) : 0.4686153E+01  (-0.3287058E+00)
 number of electron       4.0000000 magnetization 
 augmentation part       -0.4964782 magnetization 

 Broyden mixing:
  rms(total) = 0.75742E-01    rms(broyden)= 0.75742E-01
  rms(prec ) = 0.22010E+00
  weight for this iteration     100.00

 eigenvalues of (default mixing * dielectric matrix)
  average eigenvalue GAMMA=   2.2330
  2.0812  2.3849

 Free energy of the ion-electron system (eV)
  ---------------------------------------------------
  alpha Z        PSCENC =         7.30440996
  Ewald energy   TEWEN  =      -220.76478224
  -Hartree energ DENC   =        -1.81189807
  -exchange      EXHF   =         0.00000000
  -V(xc)+E(xc)   XCENC  =        -4.20502741
  PAW double counting   =       153.74692911     -138.92813352
  entropy T*S    EENTRO =        -0.00999324
  eigenvalues    EBANDS =       132.30384922
  atomic energy  EATOM  =       103.43265638
  Solvation  Ediel_sol  =         0.00000000
  ---------------------------------------------------
  free energy    TOTEN  =        31.06801019 eV

  energy without entropy =       31.07800343  energy(sigma->0) =       31.07300681


--------------------------------------------------------------------------------------------------------




--------------------------------------- Iteration      3(   4)  ---------------------------------------


    POTLOK:  cpu time      0.0031: real time      0.0069
    SETDIJ:  cpu time      0.0024: real time      0.0264
     EDDAV:  cpu time      0.0213: real time      0.0213
       DOS:  cpu time      0.0001: real time      0.0001
    CHARGE:  cpu time      0.0036: real time      0.0036
    MIXING:  cpu time      0.0005: real time      0.0005
    --------------------------------------------
      LOOP:  cpu time      0.0310: real time      0.0550

 eigenvalue-minimisations  :   150
 total energy-change (2. order) : 0.4664451E-02  (-0.7699417E-03)
 number of electron       4.0000000 magnetization 
 augmentation part       -0.4951985 magnetization 

 Broyden mixing:
  rms(total) = 0.16964E-01    rms(broyden)= 0.16964E-01
  rms(prec ) = 0.49907E-01
  weight for this iteration     100.00

 eigenvalues of (default mixing * dielectric matrix)
  average eigenvalue GAMMA=   1.9548
  1.0367  2.3047  2.5231

 Free energy of the ion-electron system (eV)
  ---------------------------------------------------
  alpha Z        PSCENC =         7.30440996
  Ewald energy   TEWEN  =      -220.76478224
  -Hartree energ DENC   =        -1.85171751
  -exchange      EXHF   =         0.00000000
  -V(xc)+E(xc)   XCENC  =        -4.16225323
  PAW double counting   =       151.23981521     -136.58931423
  entropy T*S    EENTRO =        -0.01010495
  eigenvalues    EBANDS =       132.47396525
  atomic energy  EATOM  =       103.43265638
  Solvation  Ediel_sol  =         0.00000000
  ---------------------------------------------------
  free energy    TOTEN  =        31.07267464 eV

  energy without entropy =       31.08277960  energy(sigma->0) =       31.07772712


--------------------------------------------------------------------------------------------------------




--------------------------------------- Iteration      3(   5)  ---------------------------------------


    POTLOK:  cpu time      0.0029: real time      0.0206
    SETDIJ:  cpu time      0.0021: real time      0.0021
     EDDAV:  cpu time      0.0179: real time      0.0179
       DOS:  cpu time      0.0001: real time      0.0001
    CHARGE:  cpu time      0.0033: real time      0.0033
    MIXING:  cpu time      0.0005: real time      0.0005
    --------------------------------------------
      LOOP:  cpu time      0.0268: real time      0.0445

 eigenvalue-minimisations  :   126
 total energy-change (2. order) : 0.2515543E-03  (-0.2087269E-04)
 number of electron       4.0000000 magnetization 
 augmentation part       -0.4953652 magnetization 

 Broyden mixing:
  rms(total) = 0.11779E-02    rms(broyden)= 0.11779E-02
  rms(prec ) = 0.25082E-02
  weight for this iteration     100.00

 eigenvalues of (default mixing * dielectric matrix)
  average eigenvalue GAMMA=   1.9561
  0.9922  2.5012  2.3413  1.9897

 Free energy of the ion-electron system (eV)
  ---------------------------------------------------
  alpha Z        PSCENC =         7.30440996
  Ewald energy   TEWEN  =      -220.76478224
  -Hartree energ DENC   =        -1.90436484
  -exchange      EXHF   =         0.00000000
  -V(xc)+E(xc)   XCENC  =        -4.13176637
  PAW double counting   =       150.86416511     -136.26320994
  entropy T*S    EENTRO =        -0.01011464
  eigenvalues    EBANDS =       132.54593278
  atomic energy  EATOM  =       103.43265638
  Solvation  Ediel_sol  =         0.00000000
  ---------------------------------------------------
  free energy    TOTEN  =        31.07292620 eV

  energy without entropy =       31.08304084  energy(sigma->0) =       31.07798352


--------------------------------------------------------------------------------------------------------




--------------------------------------- Iteration      3(   6)  ---------------------------------------


    POTLOK:  cpu time      0.0029: real time      0.0085
    SETDIJ:  cpu time      0.0022: real time      0.0347
     EDDAV:  cpu time      0.0140: real time      0.0140
       DOS:  cpu time      0.0001: real time      0.0001
    --------------------------------------------
      LOOP:  cpu time      0.0192: real time      0.0598

 eigenvalue-minimisations  :    84
 total energy-change (2. order) : 0.5715514E-05  (-0.1864370E-06)
 number of electron       4.0000000 magnetization 
 augmentation part       -0.4953652 magnetization 

 Free energy of the ion-electron system (eV)
  ---------------------------------------------------
  alpha Z        PSCENC =         7.30440996
  Ewald energy   TEWEN  =      -220.76478224
  -Hartree energ DENC   =        -1.90261906
  -exchange      EXHF   =         0.00000000
  -V(xc)+E(xc)   XCENC  =        -4.13266777
  PAW double counting   =       150.29279985     -135.68424800
  entropy T*S    EENTRO =        -0.01011337
  eigenvalues    EBANDS =       132.53749617
  atomic energy  EATOM  =       103.43265638
  Solvation  Ediel_sol  =         0.00000000
  ---------------------------------------------------
  free energy    TOTEN  =        31.07293191 eV

  energy without entropy =       31.08304529  energy(sigma->0) =       31.07798860


--------------------------------------------------------------------------------------------------------




 average (electrostatic) potential at core
  the test charge radii are     0.9892
  (the norm of the test charge is              1.0000)
       1 -51.8070
 
 
 
 E-fermi :  44.0057     XC(G=0): -18.5777     alpha+bet :-74.5709

 Fermi energy:        44.0057158974

 k-point     1 :       0.0833    0.0833    0.0833
  band No.  band energies     occupation 
      1      14.9803      2.00000
      2      50.6069      0.00000
      3      50.6069      0.00000
      4      70.7690      0.00000
      5      77.2166      0.00000
      6      77.2166      0.00000

 k-point     2 :       0.2500    0.0833    0.0833
  band No.  band energies     occupation 
      1      18.2191      2.00000
      2      43.5637      2.00000
      3      53.5522      0.00000
      4      69.5613      0.00000
      5      74.9265      0.00000
      6      85.4189      0.00000

 k-point     3 :       0.4167    0.0833    0.0833
  band No.  band energies     occupation 
      1      23.7910      2.00000
      2      34.6955      2.00000
      3      58.7633      0.00000
      4      68.5290      0.00000
      5      70.5748      0.00000
      6      89.6587      0.00000

 k-point     4 :       0.2500    0.2500    0.0833
  band No.  band energies     occupation 
      1      21.1426      2.00000
      2      44.9474      0.00000
      3      48.2554      0.00000
      4      65.6182      0.00000
      5      72.7337      0.00000
      6      89.9596      0.00000

 k-point     5 :       0.4167    0.2500    0.0833
  band No.  band energies     occupation 
      1      26.1041      2.00000
      2      37.5723      2.00000
      3      51.5767      0.00000
      4      60.2105      0.00000
      5      72.2602      0.00000
      6      82.7682      0.00000

 k-point     6 :       0.4167    0.4167    0.0833
  band No.  band energies     occupation 
      1      30.0179      2.00000
      2      41.7673      2.00000
      3      42.3936      2.00000
      4      54.3445      0.00000
      5      76.7195      0.00000
      6      80.2371      0.00000

 k-point     7 :       0.2500    0.2500    0.2500
  band No.  band energies     occupation 
      1      23.8767      2.00000
      2      46.9463      0.00000
      3      46.9463      0.00000
      4      60.0513      0.00000
      5      70.9416      0.00000
      6      70.9416      0.00000

 k-point     8 :       0.4167    0.2500    0.2500
  band No.  band energies     occupation 
      1      28.5521      2.00000
      2      39.8661      2.00000
      3      50.6029      0.00000
      4      61.0073      0.00000
      5      61.6771      0.00000
      6      70.9090      0.00000

 k-point     9 :       0.4167    0.4167    0.2500
  band No.  band energies     occupation 
      1      32.8580      2.00000
      2      42.6683      2.00000
      3      43.9861      1.21905
      4      57.1064      0.00000
      5      63.6141      0.00000
      6      67.6243      0.00000

 k-point    10 :       0.4167    0.4167    0.4167
  band No.  band energies     occupation 
      1      37.7723      2.00000
      2      43.9904      1.17143
      3      43.9904      1.17143
      4      57.7775      0.00000
      5      59.9259      0.00000
      6      59.9259      0.00000


--------------------------------------------------------------------------------------------------------


 soft charge-density along one line, spin component           1
         0         1         2         3         4         5         6         7         8         9
 total charge-density along one line
 
 pseudopotential strength for first ion, spin component:           1
 16.021  -0.036   0.000   0.000   0.000  -0.000  -0.000  -0.000
 -0.036   0.005  -0.000  -0.000  -0.000   0.000   0.000   0.000
  0.000  -0.000   4.071  -0.000   0.000  -0.032   0.000  -0.000
  0.000  -0.000  -0.000   4.071   0.000   0.000  -0.032  -0.000
  0.000  -0.000   0.000   0.000   4.071  -0.000  -0.000  -0.032
 -0.000   0.000  -0.032   0.000  -0.000   0.007  -0.000   0.000
 -0.000   0.000   0.000  -0.032  -0.000  -0.000   0.007   0.000
[...]
  energy-cutoff  :      400.00
  volume of cell :       16.31
      direct lattice vectors                 reciprocal lattice vectors
     2.536099859  0.000000000 -0.000000000     0.394306240  0.000000000 -0.000000000
    -0.000000000  2.536099859 -0.000000000    -0.000000000  0.394306240 -0.000000000
     0.000000000  0.000000000  2.536099859     0.000000000  0.000000000  0.394306240

  length of vectors
     2.536099859  2.536099859  2.536099859     0.394306240  0.394306240  0.394306240


 FORCES acting on ions
    electron-ion (+dipol)            ewald-force                    non-local-force                 convergence-correction
 -----------------------------------------------------------------------------------------------
   0.155E-14 0.957E-15 0.196E-14   0.165E-15 0.675E-16 0.118E-15   0.113E-26 0.937E-27 0.944E-27   0.704E-15 0.157E-15 0.974E-16
 -----------------------------------------------------------------------------------------------
   0.155E-14 0.957E-15 0.196E-14   0.165E-15 0.675E-16 0.118E-15   0.113E-26 0.937E-27 0.944E-27   0.704E-15 0.157E-15 0.974E-16
 
 
 POSITION                                       TOTAL-FORCE (eV/Angst)
 -----------------------------------------------------------------------------------
     -0.00000     -0.00000     -0.00000        -0.000000     -0.000000      0.000000
 -----------------------------------------------------------------------------------
    total drift:                                0.000000      0.000000      0.000000


--------------------------------------------------------------------------------------------------------



  FREE ENERGIE OF THE ION-ELECTRON SYSTEM (eV)
  ---------------------------------------------------
  free  energy   TOTEN  =        -5.59820902 eV

  energy  without entropy=       -5.59162029  energy(sigma->0) =       -5.59491465
 
 d Force = 0.0000000E+00[ 0.000E+00, 0.000E+00]  d Energy = 0.7767451E-01-0.777E-01
 d Force = 0.0000000E+00[ 0.000E+00, 0.000E+00]  d Ewald  =-0.6765474E+01 0.677E+01


--------------------------------------------------------------------------------------------------------


    POTLOK:  cpu time      0.0039: real time      0.0414


--------------------------------------------------------------------------------------------------------




--------------------------------------------------------------------------------------------------------


    WAVPRE:  cpu time      0.0038: real time      0.0184
    FEWALD:  cpu time      0.0000: real time      0.0000
    GENKIN:  cpu time      0.0008: real time      0.0008
    ORTHCH:  cpu time      0.0005: real time      0.0005
     LOOP+:  cpu time      0.1923: real time      0.4286


--------------------------------------- Iteration      9(   1)  ---------------------------------------


    POTLOK:  cpu time      0.0030: real time      0.0030
    SETDIJ:  cpu time      0.0006: real time      0.0006
     EDDAV:  cpu time      0.0202: real time      0.0202
       DOS:  cpu time      0.0001: real time      0.0001
    CHARGE:  cpu time      0.0019: real time      0.0019
    MIXING:  cpu time      0.0004: real time      0.0009
    --------------------------------------------
      LOOP:  cpu time      0.0264: real time      0.0268

 eigenvalue-minimisations  :   138
 total energy-change (2. order) :-0.3046805E-02  (-0.4120701E-02)
 number of electron       3.9999999 magnetization 
 augmentation part       -0.2567501 magnetization 

 Broyden mixing:
  rms(total) = 0.13761E-01    rms(broyden)= 0.13761E-01
  rms(prec ) = 0.54077E-01
  weight for this iteration     100.00

 Free energy of the ion-electron system (eV)
  ---------------------------------------------------
  alpha Z        PSCENC =         1.48179072
  Ewald energy   TEWEN  =      -129.71704208
  -Hartree energ DENC   =        -1.89322221
  -exchange      EXHF   =         0.00000000
  -V(xc)+E(xc)   XCENC  =        -8.89703382
  PAW double counting   =        35.81130251      -18.45145609
  entropy T*S    EENTRO =        -0.00887402
  eigenvalues    EBANDS =        12.64062267
  atomic energy  EATOM  =       103.43265638
  Solvation  Ediel_sol  =         0.00000000
  ---------------------------------------------------
  free energy    TOTEN  =        -5.60125594 eV

  energy without entropy =       -5.59238193  energy(sigma->0) =       -5.59681894


--------------------------------------------------------------------------------------------------------




--------------------------------------- Iteration      9(   2)  ---------------------------------------


    POTLOK:  cpu time      0.0028: real time      0.0028
    SETDIJ:  cpu time      0.0006: real time      0.0006
     EDDAV:  cpu time      0.0179: real time      0.0179
       DOS:  cpu time      0.0004: real time      0.0026
    CHARGE:  cpu time      0.0020: real time      0.0020
    MIXING:  cpu time      0.0005: real time      0.0012
    --------------------------------------------
      LOOP:  cpu time      0.0242: real time      0.0270

 eigenvalue-minimisations  :   126
 total energy-change (2. order) : 0.6785015E-03  (-0.4541937E-04)
 number of electron       3.9999999 magnetization 
 augmentation part       -0.2571071 magnetization 

 Broyden mixing:
  rms(total) = 0.78250E-02    rms(broyden)= 0.78250E-02
  rms(prec ) = 0.30944E-01
  weight for this iteration     100.00

 eigenvalues of (default mixing * dielectric matrix)
  average eigenvalue GAMMA=   2.2967
  2.2967

 Free energy of the ion-electron system (eV)
  ---------------------------------------------------
  alpha Z        PSCENC =         1.48179072
  Ewald energy   TEWEN  =      -129.71704208
  -Hartree energ DENC   =        -1.85948610
  -exchange      EXHF   =         0.00000000
  -V(xc)+E(xc)   XCENC  =        -8.89460221
  PAW double counting   =        35.85385819      -18.49495538
  entropy T*S    EENTRO =        -0.00876202
  eigenvalues    EBANDS =        12.60596506
  atomic energy  EATOM  =       103.43265638
  Solvation  Ediel_sol  =         0.00000000
  ---------------------------------------------------
  free energy    TOTEN  =        -5.60057744 eV

  energy without entropy =       -5.59181542  energy(sigma->0) =       -5.59619643


--------------------------------------------------------------------------------------------------------




--------------------------------------- Iteration      9(   3)  ---------------------------------------


    POTLOK:  cpu time      0.0029: real time      0.0052
    SETDIJ:  cpu time      0.0007: real time      0.0207
     EDDAV:  cpu time      0.0207: real time      0.0208
       DOS:  cpu time      0.0001: real time      0.0001
    CHARGE:  cpu time      0.0022: real time      0.0046
    MIXING:  cpu time      0.0004: real time      0.0004
    --------------------------------------------
      LOOP:  cpu time      0.0270: real time      0.0519

 eigenvalue-minimisations  :   150
 total energy-change (2. order) : 0.3513577E-03  (-0.5714294E-04)
 number of electron       3.9999999 magnetization 
 augmentation part       -0.2578345 magnetization 

 Broyden mixing:
  rms(total) = 0.44762E-03    rms(broyden)= 0.44761E-03
  rms(prec ) = 0.99847E-03
  weight for this iteration     100.00

 eigenvalues of (default mixing * dielectric matrix)
  average eigenvalue GAMMA=   1.8001
  1.2552  2.3450

 Free energy of the ion-electron system (eV)
  ---------------------------------------------------
  alpha Z        PSCENC =         1.48179072
  Ewald energy   TEWEN  =      -129.71704208
  -Hartree energ DENC   =        -1.81614480
  -exchange      EXHF   =         0.00000000
  -V(xc)+E(xc)   XCENC  =        -8.89053056
  PAW double counting   =        35.96281111      -18.60652631
  entropy T*S    EENTRO =        -0.00861204
  eigenvalues    EBANDS =        12.56137150
  atomic energy  EATOM  =       103.43265638
  Solvation  Ediel_sol  =         0.00000000
  ---------------------------------------------------
  free energy    TOTEN  =        -5.60022609 eV

  energy without entropy =       -5.59161405  energy(sigma->0) =       -5.59592007


--------------------------------------------------------------------------------------------------------




--------------------------------------- Iteration      9(   4)  ---------------------------------------


    POTLOK:  cpu time      0.0029: real time      0.0032
    SETDIJ:  cpu time      0.0006: real time      0.0006
     EDDAV:  cpu time      0.0176: real time      0.0176
       DOS:  cpu time      0.0001: real time      0.0001
    --------------------------------------------
      LOOP:  cpu time      0.0213: real time      0.0215

 eigenvalue-minimisations  :   120
 total energy-change (2. order) : 0.1360756E-05  (-0.2255661E-06)
 number of electron       3.9999999 magnetization 
 augmentation part       -0.2578345 magnetization 

 Free energy of the ion-electron system (eV)
  ---------------------------------------------------
  alpha Z        PSCENC =         1.48179072
  Ewald energy   TEWEN  =      -129.71704208
  -Hartree energ DENC   =        -1.81657551
  -exchange      EXHF   =         0.00000000
  -V(xc)+E(xc)   XCENC  =        -8.89015493
  PAW double counting   =        35.99288575      -18.63767695
  entropy T*S    EENTRO =        -0.00861226
  eigenvalues    EBANDS =        12.56250416
  atomic energy  EATOM  =       103.43265638
  Solvation  Ediel_sol  =         0.00000000
  ---------------------------------------------------
  free energy    TOTEN  =        -5.60022472 eV

  energy without entropy =       -5.59161246  energy(sigma->0) =       -5.59591859


--------------------------------------------------------------------------------------------------------




 average (electrostatic) potential at core
  the test charge radii are     0.9892
  (the norm of the test charge is              1.0000)
       1 -82.6449
 
 
 
 E-fermi :   8.1816     XC(G=0): -10.7588     alpha+bet :-15.1276

 Fermi energy:         8.1816310433

 k-point     1 :       0.0833    0.0833    0.0833
  band No.  band energies     occupation 
      1      -4.4186      2.00000
      2      12.8974      0.00000
      3      12.8974      0.00000
      4      15.1411      0.00000
      5      19.7993      0.00000
      6      19.7993      0.00000

 k-point     2 :       0.2500    0.0833    0.0833
  band No.  band energies     occupation 
      1      -3.1920      2.00000
      2       7.8141      2.00000
      3      13.8968      0.00000
      4      15.8447      0.00000
      5      20.6873      0.00000
      6      23.4949      0.00000

 k-point     3 :       0.4167    0.0833    0.0833
  band No.  band energies     occupation 
      1      -0.8755      2.00000
      2       3.2956      2.00000
      3      15.4773      0.00000
      4      17.8282      0.00000
      5      21.5094      0.00000
      6      21.6853      0.00000

 k-point     4 :       0.2500    0.2500    0.0833
  band No.  band energies     occupation 
      1      -1.9711      2.00000
      2       8.2429      0.38613
      3       9.7835      0.00000
      4      16.2064      0.00000
      5      20.1858      0.00000
      6      23.6062      0.00000

 k-point     5 :       0.4167    0.2500    0.0833
  band No.  band energies     occupation 
      1       0.3396      2.00000
      2       4.4059      2.00000
      3      11.0422      0.00000
      4      15.9006      0.00000
      5      18.3951      0.00000
      6      22.7881      0.00000

 k-point     6 :       0.4167    0.4167    0.0833
  band No.  band energies     occupation 
      1       2.6589      2.00000
      2       5.9112      2.00000
      3       7.1187      2.00000
      4      11.6873      0.00000
      5      20.1172      0.00000
      6      24.5676      0.00000

 k-point     7 :       0.2500    0.2500    0.2500
  band No.  band energies     occupation 
      1      -0.7575      2.00000
      2       9.2831      0.00000
      3       9.2831      0.00000
      4      12.4739      0.00000
      5      21.0884      0.00000
      6      21.0884      0.00000

 k-point     8 :       0.4167    0.2500    0.2500
  band No.  band energies     occupation 
      1       1.5422      2.00000
      2       5.5006      2.00000
      3      10.9859      0.00000
      4      14.0201      0.00000
      5      17.0763      0.00000
      6      17.4893      0.00000

 k-point     9 :       0.4167    0.4167    0.2500
  band No.  band energies     occupation 
      1       3.8338      2.00000
      2       6.9690      2.00000
      3       8.1203      1.61387
      4      12.7353      0.00000
      5      15.2962      0.00000
      6      19.4001      0.00000

 k-point    10 :       0.4167    0.4167    0.4167
  band No.  band energies     occupation 
      1       6.0484      2.00000
      2       8.7309      0.00000
      3       8.7309      0.00000
      4      12.3304      0.00000
      5      14.6001      0.00000
      6      14.6001      0.00000


--------------------------------------------------------------------------------------------------------


 soft charge-density along one line, spin component           1
         0         1         2         3         4         5         6         7         8         9
 total charge-density along one line
 
 pseudopotential strength for first ion, spin component:           1
 19.144  -0.003  -0.000  -0.000  -0.000   0.000   0.000   0.000
 -0.003   0.006   0.000   0.000   0.000  -0.000  -0.000  -0.000
 -0.000   0.000   4.307  -0.000   0.000  -0.006   0.000  -0.000
 -0.000   0.000  -0.000   4.307   0.000   0.000  -0.006  -0.000
 -0.000   0.000   0.000   0.000   4.307  -0.000  -0.000  -0.006
  0.000  -0.000  -0.006   0.000  -0.000   0.005  -0.000   0.000
  0.000  -0.000   0.000  -0.006  -0.000  -0.000   0.005   0.000
  0.000  -0.000  -0.000  -0.000  -0.006   0.000   0.000   0.005
 total augmentation occupancy for first ion, spin component:           1
  1.677  -0.482   0.000   0.000   0.000   0.000   0.000   0.000
 -0.482   0.974   0.000   0.000   0.000   0.000   0.000   0.000
  0.000   0.000   0.875   0.000   0.000  -0.475   0.000  -0.000
  0.000   0.000   0.000   0.875   0.000  -0.000  -0.475  -0.000
  0.000   0.000   0.000   0.000   0.875  -0.000  -0.000  -0.475
  0.000   0.000  -0.475  -0.000  -0.000   0.336   0.000  -0.000
  0.000   0.000  -0.000  -0.475   0.000   0.000   0.336   0.000
  0.000   0.000  -0.000  -0.000  -0.475   0.000  -0.000   0.336


------------------------ aborting loop because EDIFF is reached ----------------------------------------


    CHARGE:  cpu time      0.0020: real time      0.0020
    FORLOC:  cpu time      0.0009: real time      0.0009
    FORNL :  cpu time      0.0033: real time      0.0057
    STRESS:  cpu time      0.0201: real time      0.0201
    FORCOR:  cpu time      0.0033: real time      0.0033
    FORHAR:  cpu time      0.0028: real time      0.0029
    MIXING:  cpu time      0.0006: real time      0.0006
    OFIELD:  cpu time      0.0000: real time      0.0028

  FORCE on cell =-STRESS in cart. coord.  units (eV):
  Direction    XX          YY          ZZ          XY          YZ          ZX
  --------------------------------------------------------------------------------------
  Alpha Z     1.48179     1.48179     1.48179
  Ewald     -43.23901   -43.23901   -43.23901    -0.00000    -0.00000    -0.00000
  Hartree     0.60564     0.60564     0.60564    -0.00000    -0.00000    -0.00000
  E(xc)     -13.03233   -13.03233   -13.03233    -0.00000    -0.00000     0.00000
  Local      -8.29004    -8.29004    -8.29004     0.00000    -0.00000    -0.00000
  n-local    39.79141    39.83842    41.67963    -0.22930    -0.33977    -0.43624
  augment    -6.66311    -6.66311    -6.66311     0.00000     0.00000     0.00000
  Kinetic    50.08312    25.95008    10.01502    -4.22755     3.61844    -0.03328
  Fock        0.00000     0.00000     0.00000     0.00000     0.00000     0.00000
  -------------------------------------------------------------------------------------
  Total      -0.01784    -0.01784    -0.01784     0.00000     0.00000     0.00000
  in kB      -1.78674    -1.78674    -1.78674     0.00000     0.00000     0.00000
  external pressure =       -1.79 kB  Pullay stress =        0.00 kB


 VOLUME and BASIS-vectors are now :
 -----------------------------------------------------------------------------
  energy-cutoff  :      400.00
  volume of cell :       16.00
      direct lattice vectors                 reciprocal lattice vectors
     2.519729365  0.000000000 -0.000000000     0.396868018  0.000000000 -0.000000000
    -0.000000000  2.519729365 -0.000000000    -0.000000000  0.396868018 -0.000000000
     0.000000000  0.000000000  2.519729365     0.000000000  0.000000000  0.396868018

  length of vectors
     2.519729365  2.519729365  2.519729365     0.396868018  0.396868018  0.396868018


 FORCES acting on ions
    electron-ion (+dipol)            ewald-force                    non-local-force                 convergence-correction
 -----------------------------------------------------------------------------------------------
   0.146E-14 0.147E-14 0.168E-14   -.934E-16 -.560E-16 0.688E-16   -.563E-27 -.496E-27 -.286E-27   -.360E-16 0.585E-16 0.101E-15
 -----------------------------------------------------------------------------------------------
   0.146E-14 0.147E-14 0.168E-14   -.934E-16 -.560E-16 0.688E-16   -.563E-27 -.496E-27 -.286E-27   -.360E-16 0.585E-16 0.101E-15
 
 
 POSITION                                       TOTAL-FORCE (eV/Angst)
 -----------------------------------------------------------------------------------
     -0.00000     -0.00000     -0.00000         0.000000      0.000000      0.000000
 -----------------------------------------------------------------------------------
    total drift:                                0.000000      0.000000      0.000000


--------------------------------------------------------------------------------------------------------



  FREE ENERGIE OF THE ION-ELECTRON SYSTEM (eV)
  ---------------------------------------------------
  free  energy   TOTEN  =        -5.60022472 eV

  energy  without entropy=       -5.59161246  energy(sigma->0) =       -5.59591859
 
 d Force = 0.0000000E+00[ 0.000E+00, 0.000E+00]  d Energy = 0.2015706E-02-0.202E-02
 d Force = 0.0000000E+00[ 0.000E+00, 0.000E+00]  d Ewald  = 0.8373219E+00-0.837E+00


--------------------------------------------------------------------------------------------------------


    POTLOK:  cpu time      0.0034: real time      0.0034


--------------------------------------------------------------------------------------------------------




--------------------------------------------------------------------------------------------------------


  
 reached required accuracy - stopping structural energy minimisation
     LOOP+:  cpu time      0.1386: real time      0.2889
    4ORBIT:  cpu time      0.0000: real time      0.0000

 total amount of memory used by VASP MPI-rank0    35516. kBytes
=======================================================================

   base      :      30000. kBytes
   nonl-proj :        515. kBytes
   fftplans  :       1676. kBytes
   grid      :       2560. kBytes
   one-center:          3. kBytes
   wavefun   :        762. kBytes
 
  
  
 General timing and accounting informations for this job:
 ========================================================
  
                  Total CPU time used (sec):        2.238
                            User time (sec):        2.044
                          System time (sec):        0.194
                         Elapsed time (sec):        4.883
  
                   Maximum memory used (kb):      138744.
                   Average memory used (kb):          N/A
  
                          Minor page faults:        18138
                          Major page faults:            0
                 Voluntary context switches:         1681
