<?xml version="1.0" encoding="ISO-8859-1"?>
<modeling>
 <generator>
  <i name="program" type="string">vasp </i>
  <i name="version" type="string">6.3.2  </i>
  <i name="subversion" type="string">27Jun22 (build Dec 02 2024 22:47:12) complex                          parallel </i>
  <i name="platform" type="string">LinuxIFC </i>
  <i name="date" type="string">2024 12 06 </i>
  <i name="time" type="string">10:28:34 </i>
 </generator>
 <incar>
  <i type="string" name="SYSTEM">Silicon</i>
  <i type="int" name="IBRION">     2</i>
  <i name="EDIFF">      0.00001000</i>
  <i type="int" name="NSW">    50</i>
  <i type="int" name="ISIF">     3</i>
  <i name="ENCUT">    400.00000000</i>
  <i type="int" name="ISMEAR">     0</i>
  <i name="SIGMA">      0.10000000</i>
  <i type="logical" name="LWAVE"> F  </i>
  <i type="logical" name="LCHARG"> F  </i>
 </incar>
 <primitive_cell>
  <structure name="primitive_cell" >
   <crystal>
    <varray name="basis" >
     <v>       3.50000000       0.00000000       0.00000000 </v>
     <v>       0.00000000       3.50000000       0.00000000 </v>
     <v>       0.00000000       0.00000000       3.50000000 </v>
    </varray>
    <i name="volume">     42.87500000 </i>
    <varray name="rec_basis" >
     <v>       0.28571429       0.00000000       0.00000000 </v>
     <v>       0.00000000       0.28571429       0.00000000 </v>
     <v>       0.00000000       0.00000000       0.28571429 </v>
    </varray>
   </crystal>
   <varray name="positions" >
    <v>       0.00000000       0.00000000       0.00000000 </v>
   </varray>
  </structure>
  <varray name="primitive_index" >
   <v type="int" >        1 </v>
  </varray>
 </primitive_cell>
 <kpoints>
  <generation param="Monkhorst-Pack">
   <v type="int" name="divisions">       6        6        6 </v>
   <v name="usershift">      0.00000000       0.00000000       0.00000000 </v>
   <v name="genvec1">      0.16666667       0.00000000       0.00000000 </v>
   <v name="genvec2">      0.00000000       0.16666667       0.00000000 </v>
   <v name="genvec3">      0.00000000       0.00000000       0.16666667 </v>
   <v name="shift">      0.50000000       0.50000000       0.50000000 </v>
  </generation>
  <varray name="kpointlist" >
   <v>       0.08333333       0.08333333       0.08333333 </v>
   <v>       0.25000000       0.08333333       0.08333333 </v>
   <v>       0.41666667       0.08333333       0.08333333 </v>
   <v>       0.25000000       0.25000000       0.08333333 </v>
   <v>       0.41666667       0.25000000       0.08333333 </v>
   <v>       0.41666667       0.41666667       0.08333333 </v>
   <v>       0.25000000       0.25000000       0.25000000 </v>
   <v>       0.41666667       0.25000000       0.25000000 </v>
   <v>       0.41666667       0.41666667       0.25000000 </v>
   <v>       0.41666667       0.41666667       0.41666667 </v>
  </varray>
  <varray name="weights" >
   <v>       0.03703704 </v>
   <v>       0.11111111 </v>
   <v>       0.11111111 </v>
   <v>       0.11111111 </v>
   <v>       0.22222222 </v>
   <v>       0.11111111 </v>
   <v>       0.03703704 </v>
   <v>       0.11111111 </v>
   <v>       0.11111111 </v>
   <v>       0.03703704 </v>
  </varray>
 </kpoints>
 <parameters>
  <separator name="general" >
   <i type="string" name="SYSTEM">Silicon</i>
   <i type="logical" name="LCOMPAT"> F  </i>
  </separator>
  <separator name="electronic" >
   <i type="string" name="PREC">normal</i>
   <i name="ENMAX">    400.00000000</i>
   <i name="ENAUG">    322.06900000</i>
   <i name="EDIFF">      0.00001000</i>
   <i type="int" name="IALGO">    38</i>
   <i type="int" name="IWAVPR">    11</i>
   <i type="int" name="NBANDS">     6</i>
   <i type="int" name="NBANDSLOW">    -1</i>
   <i type="int" name="NBANDSHIGH">    -1</i>
   <i name="NELECT">      4.00000000</i>
   <i type="int" name="TURBO">     0</i>
   <i type="int" name="IRESTART">     0</i>
   <i type="int" name="NREBOOT">     0</i>
   <i type="int" name="NMIN">     0</i>
   <i name="EREF">      0.00000000</i>
   <separator name="electronic smearing" >
    <i type="int" name="ISMEAR">     0</i>
    <i name="SIGMA">      0.10000000</i>
    <i name="KSPACING">      0.50000000</i>
    <i type="logical" name="KGAMMA"> T  </i>
    <i type="logical" name="KBLOWUP"> T  </i>
   </separator>
   <separator name="electronic projectors" >
    <i type="logical" name="LREAL"> F  </i>
    <v name="ROPT">      0.00000000</v>
    <i type="int" name="LMAXPAW">  -100</i>
    <i type="int" name="LMAXMIX">     2</i>
    <i type="logical" name="NLSPLINE"> F  </i>
   </separator>
   <separator name="electronic startup" >
    <i type="int" name="ISTART">     0</i>
    <i type="int" name="ICHARG">     2</i>
    <i type="int" name="INIWAV">     1</i>
   </separator>
   <separator name="electronic spin" >
    <i type="int" name="ISPIN">     1</i>
    <i type="logical" name="LNONCOLLINEAR"> F  </i>
    <v name="MAGMOM">      1.00000000</v>
    <i name="NUPDOWN">     -1.00000000</i>
    <i type="logical" name="LSORBIT"> F  </i>
    <v name="SAXIS">      0.00000000      0.00000000      1.00000000</v>
    <i type="logical" name="LSPIRAL"> F  </i>
    <v name="QSPIRAL">      0.00000000      0.00000000      0.00000000</v>
    <i type="logical" name="LZEROZ"> F  </i>
   </separator>
   <separator name="electronic exchange-correlation" >
    <i type="logical" name="LASPH"> F  </i>
    <i type="logical" name="LMETAGGA"> F  </i>
   </separator>
   <separator name="electronic convergence" >
    <i type="int" name="NELM">    60</i>
    <i type="int" name="NELMDL">     0</i>
    <i type="int" name="NELMIN">     2</i>
    <i name="ENINI">    400.00000000</i>
    <separator name="electronic convergence detail" >
     <i type="logical" name="LDIAG"> T  </i>
     <i type="logical" name="LSUBROT"> F  </i>
     <i name="WEIMIN">      0.00100000</i>
     <i name="EBREAK">      0.00000042</i>
     <i name="DEPER">      0.30000000</i>
     <i type="int" name="NRMM">     4</i>
     <i name="TIME">      0.40000000</i>
    </separator>
   </separator>
   <separator name="electronic mixer" >
    <i name="AMIX">      0.40000000</i>
    <i name="BMIX">      1.00000000</i>
    <i name="AMIN">      0.10000000</i>
    <i name="AMIX_MAG">      1.60000000</i>
    <i name="BMIX_MAG">      1.00000000</i>
    <separator name="electronic mixer details" >
     <i type="int" name="IMIX">     4</i>
     <i type="logical" name="MIXFIRST"> F  </i>
     <i type="int" name="MAXMIX">   -45</i>
     <i name="WC">    100.00000000</i>
     <i type="int" name="INIMIX">     1</i>
     <i type="int" name="MIXPRE">     1</i>
     <i type="int" name="MREMOVE">     5</i>
    </separator>
   </separator>
   <separator name="electronic dipolcorrection" >
    <i type="logical" name="LDIPOL"> F  </i>
    <i type="logical" name="LMONO"> F  </i>
    <i type="int" name="IDIPOL">     0</i>
    <i name="EPSILON">      1.00000000</i>
    <v name="DIPOL">   -100.00000000   -100.00000000   -100.00000000</v>
    <i name="EFIELD">      0.00000000</i>
   </separator>
  </separator>
  <separator name="grids" >
   <i type="int" name="NGX">    18</i>
   <i type="int" name="NGY">    18</i>
   <i type="int" name="NGZ">    18</i>
   <i type="int" name="NGXF">    36</i>
   <i type="int" name="NGYF">    36</i>
   <i type="int" name="NGZF">    36</i>
   <i type="logical" name="ADDGRID"> F  </i>
  </separator>
  <separator name="ionic" >
   <i type="int" name="NSW">    50</i>
   <i type="int" name="IBRION">     2</i>
   <i type="int" name="MDALGO">     0</i>
   <i type="int" name="ISIF">     3</i>
   <i name="PSTRESS">      0.00000000</i>
   <i name="EDIFFG">      0.00010000</i>
   <i type="int" name="NFREE">     1</i>
   <i name="POTIM">      0.50000000</i>
   <i name="SMASS">     -3.00000000</i>
   <i name="SCALEE">      1.00000000</i>
  </separator>
  <separator name="ionic md" >
   <i name="TEBEG">      0.00010000</i>
   <i name="TEEND">      0.00010000</i>
   <i type="int" name="NBLOCK">     1</i>
   <i type="int" name="KBLOCK">    50</i>
   <i type="int" name="NPACO">   256</i>
   <i name="APACO">     10.00000000</i>
  </separator>
  <separator name="symmetry" >
   <i type="int" name="ISYM">     2</i>
   <i name="SYMPREC">      0.00001000</i>
  </separator>
  <separator name="dos" >
   <i type="int" name="LORBIT">     0</i>
   <v name="RWIGS">     -1.00000000</v>
   <i type="int" name="NEDOS">   301</i>
   <i name="EMIN">     10.00000000</i>
   <i name="EMAX">    -10.00000000</i>
   <i name="EFERMI">      0.00000000</i>
  </separator>
  <separator name="writing" >
   <i type="int" name="NWRITE">     2</i>
   <i type="logical" name="LWAVE"> F  </i>
   <i type="logical" name="LDOWNSAMPLE"> F  </i>
   <i type="logical" name="LCHARG"> F  </i>
   <i type="logical" name="LPARD"> F  </i>
   <i type="logical" name="LVTOT"> F  </i>
   <i type="logical" name="LVHAR"> F  </i>
   <i type="logical" name="LELF"> F  </i>
   <i type="logical" name="LOPTICS"> F  </i>
   <v name="STM">      0.00000000      0.00000000      0.00000000      0.00000000      0.00000000      0.00000000      0.00000000</v>
  </separator>
  <separator name="performance" >
   <i type="int" name="NPAR">     1</i>
   <i type="int" name="NSIM">     4</i>
   <i type="int" name="NBLK">    -1</i>
   <i type="logical" name="LPLANE"> T  </i>
   <i type="logical" name="LSCALAPACK"> T  </i>
   <i type="logical" name="LSCAAWARE"> F  </i>
   <i type="logical" name="LSCALU"> F  </i>
   <i type="logical" name="LASYNC"> F  </i>
   <i type="logical" name="LORBITALREAL"> F  </i>
  </separator>
  <separator name="miscellaneous" >
   <i type="int" name="IDIOT">     3</i>
   <i type="int" name="PHON_NSTRUCT">    -1</i>
   <i type="logical" name="LMUSIC"> F  </i>
   <v name="POMASS">     28.08500000</v>
   <v name="DARWINR">      0.00000000</v>
   <v name="DARWINV">      1.00000000</v>
   <i type="logical" name="LCORR"> T  </i>
  </separator>
  <i type="logical" name="GGA_COMPAT"> T  </i>
  <i type="logical" name="LBERRY"> F  </i>
  <i type="int" name="ICORELEVEL">     0</i>
  <i type="logical" name="LDAU"> F  </i>
  <i type="int" name="I_CONSTRAINED_M">     0</i>
  <separator name="electronic exchange-correlation" >
   <i type="string" name="GGA">--</i>
   <i type="int" name="VOSKOWN">     0</i>
   <i type="logical" name="LHFCALC"> F  </i>
   <i type="string" name="PRECFOCK"></i>
   <i type="logical" name="LSYMGRAD"> F  </i>
   <i type="logical" name="LHFONE"> F  </i>
   <i type="logical" name="LRHFCALC"> F  </i>
   <i type="logical" name="LTHOMAS"> F  </i>
   <i type="logical" name="LMODELHF"> F  </i>
   <i type="logical" name="LFOCKACE"> F  </i>
   <i name="ENCUT4O">     -1.00000000</i>
   <i type="int" name="EXXOEP">     0</i>
   <i type="int" name="FOURORBIT">     0</i>
   <i name="AEXX">      0.00000000</i>
   <i name="HFALPHA">      0.00000000</i>
   <i name="MCALPHA">      0.00000000</i>
   <i name="ALDAX">      1.00000000</i>
   <i name="AGGAX">      1.00000000</i>
   <i name="ALDAC">      1.00000000</i>
   <i name="AGGAC">      1.00000000</i>
   <i type="int" name="NKREDX">     1</i>
   <i type="int" name="NKREDY">     1</i>
   <i type="int" name="NKREDZ">     1</i>
   <i type="logical" name="SHIFTRED"> F  </i>
   <i type="logical" name="ODDONLY"> F  </i>
   <i type="logical" name="EVENONLY"> F  </i>
   <i type="int" name="LMAXFOCK">     0</i>
   <i type="int" name="NMAXFOCKAE">     0</i>
   <i type="logical" name="LFOCKAEDFT"> F  </i>
   <i name="HFSCREEN">      0.00000000</i>
   <i name="HFSCREENC">      0.00000000</i>
   <i type="int" name="NBANDSGWLOW">     0</i>
  </separator>
  <separator name="vdW DFT" >
   <i type="logical" name="LUSE_VDW"> F  </i>
   <i name="Zab_VDW">     -0.84910000</i>
   <i name="PARAM1">      0.12340000</i>
   <i name="PARAM2">      1.00000000</i>
   <i name="PARAM3">      0.00000000</i>
  </separator>
  <separator name="model GW" >
   <i type="int" name="MODEL_GW">     0</i>
   <i name="MODEL_EPS0">     25.72500000</i>
   <i name="MODEL_ALPHA">      1.00000000</i>
  </separator>
  <separator name="linear response parameters" >
   <i type="logical" name="LEPSILON"> F  </i>
   <i type="logical" name="LRPA"> F  </i>
   <i type="logical" name="LNABLA"> F  </i>
   <i type="logical" name="LVEL"> F  </i>
   <i name="CSHIFT">      0.10000000</i>
   <i name="OMEGAMAX">     -1.00000000</i>
   <i name="DEG_THRESHOLD">      0.00200000</i>
   <i name="RTIME">     -0.10000000</i>
   <i name="WPLASMAI">      0.00000000</i>
   <v name="DFIELD">      0.00000000      0.00000000      0.00000000</v>
   <v name="WPLASMA">      0.00000000      0.00000000      0.00000000      0.00000000      0.00000000      0.00000000      0.00000000      0.00000000      0.00000000</v>
  </separator>
  <separator name="orbital magnetization" >
   <i type="logical" name="NUCIND"> F  </i>
   <v name="MAGPOS">      0.00000000      0.00000000      0.00000000</v>
   <i type="logical" name="LNICSALL"> T  </i>
   <i type="logical" name="ORBITALMAG"> F  </i>
   <i type="logical" name="LMAGBLOCH"> F  </i>
   <i type="logical" name="LCHIMAG"> F  </i>
   <i type="logical" name="LGAUGE"> T  </i>
   <i type="int" name="MAGATOM">     0</i>
   <v name="MAGDIPOL">      0.00000000      0.00000000      0.00000000</v>
   <v name="AVECCONST">      0.00000000      0.00000000      0.00000000</v>
  </separator>
  <separator name="response functions" >
   <i type="logical" name="LFINITE_TEMPERATURE"> F  </i>
   <i type="logical" name="LADDER"> F  </i>
   <i type="logical" name="LRPAFORCE"> F  </i>
   <i type="logical" name="LFXC"> F  </i>
   <i type="logical" name="LHARTREE"> T  </i>
   <i type="int" name="IBSE">     0</i>
   <v type="int" name="KPOINT">    -1     0     0     0</v>
   <i type="logical" name="LTCTC"> F  </i>
   <i type="logical" name="LTCTE"> F  </i>
   <i type="logical" name="LTETE"> F  </i>
   <i type="logical" name="LTRIPLET"> F  </i>
   <i type="logical" name="LFXCEPS"> F  </i>
   <i type="logical" name="LFXHEG"> F  </i>
   <i type="int" name="NATURALO">     2</i>
   <i type="logical" name="LHOLEGF"> F  </i>
   <i type="logical" name="L2ORDER"> F  </i>
   <i type="logical" name="LDMP1"> F  </i>
   <i type="logical" name="LMP2LT"> F  </i>
   <i type="logical" name="LSMP2LT"> F  </i>
   <i type="logical" name="LGWLF"> F  </i>
   <i name="ENCUTGW">     -2.00000000</i>
   <i name="ENCUTGWSOFT">     -2.00000000</i>
   <i name="ENCUTLF">     -1.00000000</i>
   <i type="logical" name="LESF_SPLINES"> F  </i>
   <i type="int" name="LMAXMP2">    -1</i>
   <i name="SCISSOR">      0.00000000</i>
   <i type="int" name="NOMEGA">     0</i>
   <i type="int" name="NOMEGAR">     0</i>
   <i type="int" name="NBANDSGW">    -1</i>
   <i type="int" name="NBANDSO">    -1</i>
   <i type="int" name="NBANDSV">    -1</i>
   <i type="int" name="NELMGW">     1</i>
   <i type="int" name="NELMHF">     1</i>
   <i type="int" name="DIM">     3</i>
   <i type="int" name="IESPILON">     4</i>
   <i type="int" name="ANTIRES">     0</i>
   <i name="OMEGAMAX">    -30.00000000</i>
   <i name="OMEGAMIN">    -30.00000000</i>
   <i name="OMEGATL">   -200.00000000</i>
   <i type="int" name="OMEGAGRID">     0</i>
   <i name="CSHIFT">     -0.10000000</i>
   <i type="logical" name="LSELFENERGY"> F  </i>
   <i type="logical" name="LSPECTRAL"> F  </i>
   <i type="logical" name="LSPECTRALGW"> F  </i>
   <i type="logical" name="LSINGLES"> F  </i>
   <i type="logical" name="LFERMIGW"> F  </i>
   <i type="logical" name="ODDONLYGW"> F  </i>
   <i type="logical" name="EVENONLYGW"> F  </i>
   <i type="int" name="NKREDLFX">     1</i>
   <i type="int" name="NKREDLFY">     1</i>
   <i type="int" name="NKREDLFZ">     1</i>
   <i type="int" name="MAXMEM">  2800</i>
   <i type="int" name="TELESCOPE">     0</i>
   <i type="int" name="NTAUPAR">    -1</i>
   <i type="int" name="NOMEGAPAR">    -1</i>
   <i name="DAMP_NEWTON">      0.80000001</i>
   <i name="LAMBDA">      1.00000000</i>
  </separator>
  <separator name="External order field" >
   <i name="OFIELD_KAPPA">      0.00000000</i>
   <v name="OFIELD_K">      0.00000000      0.00000000      0.00000000</v>
   <i name="OFIELD_Q6_NEAR">      0.00000000</i>
   <i name="OFIELD_Q6_FAR">      0.00000000</i>
   <i name="OFIELD_A">      0.00000000</i>
  </separator>
  <separator name="optional k-points parameters" >
   <i type="int" name="KPOINTS_OPT_MODE">     1</i>
   <i type="logical" name="LKPOINTS_OPT"> F  </i>
  </separator>
 </parameters>
 <atominfo>
  <atoms>       1 </atoms>
  <types>       1 </types>
  <array name="atoms" >
   <dimension dim="1">ion</dimension>
   <field type="string">element</field>
   <field type="int">atomtype</field>
   <set>
    <rc><c>Si</c><c>   1</c></rc>
   </set>
  </array>
  <array name="atomtypes" >
   <dimension dim="1">type</dimension>
   <field type="int">atomspertype</field>
   <field type="string">element</field>
   <field>mass</field>
   <field>valence</field>
   <field type="string">pseudopotential</field>
   <set>
    <rc><c>   1</c><c>Si</c><c>     28.08500000</c><c>      4.00000000</c><c> PAW Si 02Apr1999                       </c></rc>
   </set>
  </array>
 </atominfo>
 <structure name="initialpos" >
  <crystal>
   <varray name="basis" >
    <v>       3.50000000       0.00000000       0.00000000 </v>
    <v>       0.00000000       3.50000000       0.00000000 </v>
    <v>       0.00000000       0.00000000       3.50000000 </v>
   </varray>
   <i name="volume">     42.87500000 </i>
   <varray name="rec_basis" >
    <v>       0.28571429       0.00000000       0.00000000 </v>
    <v>       0.00000000       0.28571429       0.00000000 </v>
    <v>       0.00000000       0.00000000       0.28571429 </v>
   </varray>
  </crystal>
  <varray name="positions" >
   <v>       0.00000000       0.00000000       0.00000000 </v>
  </varray>
 </structure>
 <calculation>
  <scstep>
   <time name="dav">    0.03    0.03</time>
   <time name="total">    0.03    0.06</time>
   <energy>
    <i name="alphaZ">      0.55289725 </i>
    <i name="ewald">    -93.38624002 </i>
    <i name="hartreedc">     -8.87427067 </i>
    <i name="XCdc">    -10.45010940 </i>
    <i name="pawpsdc">     33.55897582 </i>
    <i name="pawaedc">    -16.14130609 </i>
    <i name="eentropy">     -0.00002256 </i>
    <i name="bandstr">     -7.33116959 </i>
    <i name="atom">    103.43265638 </i>
    <i name="e_fr_energy">      1.36141113 </i>
    <i name="e_wo_entrp">      1.36143369 </i>
    <i name="e_0_energy">      1.36142241 </i>
   </energy>
  </scstep>
  <scstep>
   <time name="dav">    0.03    0.04</time>
   <time name="total">    0.03    0.04</time>
   <energy>
    <i name="e_fr_energy">     -3.17499163 </i>
    <i name="e_wo_entrp">     -3.17235865 </i>
    <i name="e_0_energy">     -3.17367514 </i>
   </energy>
  </scstep>
  <scstep>
   <time name="dav">    0.02    0.03</time>
   <time name="total">    0.02    0.03</time>
   <energy>
    <i name="e_fr_energy">     -3.29511365 </i>
    <i name="e_wo_entrp">     -3.29198721 </i>
    <i name="e_0_energy">     -3.29355043 </i>
   </energy>
  </scstep>
  <scstep>
   <time name="dav">    0.03    0.05</time>
   <time name="total">    0.03    0.05</time>
   <energy>
    <i name="e_fr_energy">     -3.29615755 </i>
    <i name="e_wo_entrp">     -3.29297963 </i>
    <i name="e_0_energy">     -3.29456859 </i>
   </energy>
  </scstep>
  <scstep>
   <time name="dav">    0.02    0.03</time>
   <time name="total">    0.03    0.03</time>
   <energy>
    <i name="e_fr_energy">     -3.29615828 </i>
    <i name="e_wo_entrp">     -3.29298035 </i>
    <i name="e_0_energy">     -3.29456931 </i>
   </energy>
  </scstep>
  <scstep>
   <time name="dav">    0.02    0.02</time>
   <time name="total">    0.03    0.04</time>
   <energy>
    <i name="e_fr_energy">     -3.27788230 </i>
    <i name="e_wo_entrp">     -3.27411507 </i>
    <i name="e_0_energy">     -3.27599869 </i>
   </energy>
  </scstep>
  <scstep>
   <time name="dav">    0.02    0.02</time>
   <time name="total">    0.03    0.06</time>
   <energy>
    <i name="e_fr_energy">     -3.27097808 </i>
    <i name="e_wo_entrp">     -3.26645188 </i>
    <i name="e_0_energy">     -3.26871498 </i>
   </energy>
  </scstep>
  <scstep>
   <time name="dav">    0.02    0.02</time>
   <time name="total">    0.03    0.03</time>
   <energy>
    <i name="e_fr_energy">     -3.27103859 </i>
    <i name="e_wo_entrp">     -3.26653227 </i>
    <i name="e_0_energy">     -3.26878543 </i>
   </energy>
  </scstep>
  <scstep>
   <time name="dav">    0.02    0.02</time>
   <time name="total">    0.02    0.08</time>
   <energy>
    <i name="alphaZ">      0.55289725 </i>
    <i name="ewald">    -93.38624002 </i>
    <i name="hartreedc">     -7.92231757 </i>
    <i name="XCdc">    -10.54628331 </i>
    <i name="pawpsdc">     32.07120993 </i>
    <i name="pawaedc">    -14.60717777 </i>
    <i name="eentropy">     -0.00451099 </i>
    <i name="bandstr">    -12.86127293 </i>
    <i name="atom">    103.43265638 </i>
    <i name="e_fr_energy">     -3.27103904 </i>
    <i name="e_wo_entrp">     -3.26652805 </i>
    <i name="e_0_energy">     -3.26878354 </i>
   </energy>
  </scstep>
  <structure>
   <crystal>
    <varray name="basis" >
     <v>       3.50000000       0.00000000       0.00000000 </v>
     <v>       0.00000000       3.50000000       0.00000000 </v>
     <v>       0.00000000       0.00000000       3.50000000 </v>
    </varray>
    <i name="volume">     42.87500000 </i>
    <varray name="rec_basis" >
     <v>       0.28571429       0.00000000       0.00000000 </v>
     <v>       0.00000000       0.28571429       0.00000000 </v>
     <v>       0.00000000       0.00000000       0.28571429 </v>
    </varray>
   </crystal>
   <varray name="positions" >
    <v>       0.00000000       0.00000000       0.00000000 </v>
   </varray>
  </structure>
  <varray name="forces" >
   <v>       0.00000000       0.00000000       0.00000000 </v>
  </varray>
  <varray name="stress" >
   <v>    -111.73307374       0.00000000      -0.00000000 </v>
   <v>      -0.00000000    -111.73307374      -0.00000000 </v>
   <v>       0.00000000       0.00000000    -111.73307374 </v>
  </varray>
  <energy>
   <i name="e_fr_energy">     -3.27103904 </i>
   <i name="e_wo_entrp">     -3.26652805 </i>
   <i name="e_0_energy">     -3.26878354 </i>
  </energy>
  <time name="totalsc">    0.30    0.53</time>
 </calculation>
 <calculation>
  <scstep>
   <time name="dav">    0.02    0.02</time>
   <time name="total">    0.03    0.03</time>
   <energy>
    <i name="alphaZ">      0.88226487 </i>
    <i name="ewald">   -109.12755100 </i>
    <i name="hartreedc">     -9.25773376 </i>
    <i name="XCdc">     -9.81772519 </i>
    <i name="pawpsdc">     32.05245021 </i>
    <i name="pawaedc">    -14.58799855 </i>
    <i name="eentropy">     -0.00003480 </i>
    <i name="bandstr">      0.61701853 </i>
    <i name="atom">    103.43265638 </i>
    <i name="e_fr_energy">     -5.80665331 </i>
    <i name="e_wo_entrp">     -5.80661851 </i>
    <i name="e_0_energy">     -5.80663591 </i>
   </energy>
  </scstep>
  <scstep>
   <time name="dav">    0.02    0.04</time>
   <time name="total">    0.03    0.04</time>
   <energy>
    <i name="e_fr_energy">     -5.04091943 </i>
    <i name="e_wo_entrp">     -5.04086587 </i>
    <i name="e_0_energy">     -5.04089265 </i>
   </energy>
  </scstep>
  <scstep>
   <time name="dav">    0.02    0.02</time>
   <time name="total">    0.02    0.03</time>
   <energy>
    <i name="e_fr_energy">     -4.68258727 </i>
    <i name="e_wo_entrp">     -4.68232787 </i>
    <i name="e_0_energy">     -4.68245757 </i>
   </energy>
  </scstep>
  <scstep>
   <time name="dav">    0.02    0.02</time>
   <time name="total">    0.03    0.05</time>
   <energy>
    <i name="e_fr_energy">     -4.68096890 </i>
    <i name="e_wo_entrp">     -4.68072580 </i>
    <i name="e_0_energy">     -4.68084735 </i>
   </energy>
  </scstep>
  <scstep>
   <time name="dav">    0.02    0.02</time>
   <time name="total">    0.03    0.04</time>
   <energy>
    <i name="e_fr_energy">     -4.68077009 </i>
    <i name="e_wo_entrp">     -4.68052867 </i>
    <i name="e_0_energy">     -4.68064938 </i>
   </energy>
  </scstep>
  <scstep>
   <time name="dav">    0.02    0.02</time>
   <time name="total">    0.02    0.06</time>
   <energy>
    <i name="alphaZ">      0.88226487 </i>
    <i name="ewald">   -109.12755100 </i>
    <i name="hartreedc">     -4.23250393 </i>
    <i name="XCdc">     -9.93368665 </i>
    <i name="pawpsdc">     32.69066819 </i>
    <i name="pawaedc">    -15.24543701 </i>
    <i name="eentropy">     -0.00024059 </i>
    <i name="bandstr">     -3.14694073 </i>
    <i name="atom">    103.43265638 </i>
    <i name="e_fr_energy">     -4.68077048 </i>
    <i name="e_wo_entrp">     -4.68052989 </i>
    <i name="e_0_energy">     -4.68065018 </i>
   </energy>
  </scstep>
  <structure>
   <crystal>
    <varray name="basis" >
     <v>       2.99513585       0.00000000      -0.00000000 </v>
     <v>      -0.00000000       2.99513585      -0.00000000 </v>
     <v>       0.00000000       0.00000000       2.99513585 </v>
    </varray>
    <i name="volume">     26.86888074 </i>
    <varray name="rec_basis" >
     <v>       0.33387467       0.00000000      -0.00000000 </v>
     <v>      -0.00000000       0.33387467      -0.00000000 </v>
     <v>       0.00000000       0.00000000       0.33387467 </v>
    </varray>
   </crystal>
   <varray name="positions" >
    <v>       0.00000000       0.00000000       0.00000000 </v>
   </varray>
  </structure>
  <varray name="forces" >
   <v>      -0.00000000      -0.00000000      -0.00000000 </v>
  </varray>
  <varray name="stress" >
   <v>    -169.30461874      -0.00000000      -0.00000000 </v>
   <v>      -0.00000000    -169.30461874      -0.00000000 </v>
   <v>      -0.00000000      -0.00000000    -169.30461874 </v>
  </varray>
  <energy>
   <i name="e_fr_energy">     -4.68077048 </i>
   <i name="e_wo_entrp">     -4.68052989 </i>
   <i name="e_0_energy">     -4.68065018 </i>
  </energy>
  <time name="totalsc">    0.20    0.34</time>
 </calculation>
 <calculation>
  <scstep>
   <time name="dav">    0.02    0.03</time>
   <time name="total">    0.04    0.04</time>
   <energy>
    <i name="alphaZ">      7.30440996 </i>
    <i name="ewald">   -220.76478224 </i>
    <i name="hartreedc">     -8.56174884 </i>
    <i name="XCdc">     -5.78586576 </i>
    <i name="pawpsdc">     32.65647909 </i>
    <i name="pawaedc">    -15.21061004 </i>
    <i name="eentropy">     -0.00986374 </i>
    <i name="bandstr">    124.99614298 </i>
    <i name="atom">    103.43265638 </i>
    <i name="e_fr_energy">     18.05681779 </i>
    <i name="e_wo_entrp">     18.06668153 </i>
    <i name="e_0_energy">     18.06174966 </i>
   </energy>
  </scstep>
  <scstep>
   <time name="dav">    0.02    0.02</time>
   <time name="total">    0.03    0.05</time>
   <energy>
    <i name="e_fr_energy">     26.38185717 </i>
    <i name="e_wo_entrp">     26.39102528 </i>
    <i name="e_0_energy">     26.38644122 </i>
   </energy>
  </scstep>
  <scstep>
   <time name="dav">    0.02    0.02</time>
   <time name="total">    0.03    0.05</time>
   <energy>
    <i name="e_fr_energy">     31.06801019 </i>
    <i name="e_wo_entrp">     31.07800343 </i>
    <i name="e_0_energy">     31.07300681 </i>
   </energy>
  </scstep>
  <scstep>
   <time name="dav">    0.02    0.02</time>
   <time name="total">    0.03    0.05</time>
   <energy>
    <i name="e_fr_energy">     31.07267464 </i>
    <i name="e_wo_entrp">     31.08277960 </i>
    <i name="e_0_energy">     31.07772712 </i>
   </energy>
  </scstep>
  <scstep>
   <time name="dav">    0.02    0.02</time>
   <time name="total">    0.03    0.04</time>
   <energy>
    <i name="e_fr_energy">     31.07292620 </i>
    <i name="e_wo_entrp">     31.08304084 </i>
    <i name="e_0_energy">     31.07798352 </i>
   </energy>
  </scstep>
  <scstep>
   <time name="dav">    0.01    0.01</time>
   <time name="total">    0.02    0.06</time>
   <energy>
    <i name="alphaZ">      7.30440996 </i>
    <i name="ewald">   -220.76478224 </i>
    <i name="hartreedc">     -1.90261906 </i>
    <i name="XCdc">     -4.13266777 </i>
    <i name="pawpsdc">    150.29279985 </i>
    <i name="pawaedc">   -135.68424800 </i>
    <i name="eentropy">     -0.01011337 </i>
    <i name="bandstr">    132.53749617 </i>
    <i name="atom">    103.43265638 </i>
    <i name="e_fr_energy">     31.07293191 </i>
    <i name="e_wo_entrp">     31.08304529 </i>
    <i name="e_0_energy">     31.07798860 </i>
   </energy>
  </scstep>
  <structure>
   <crystal>
    <varray name="basis" >
     <v>       1.48054339       0.00000000      -0.00000000 </v>
     <v>      -0.00000000       1.48054339      -0.00000000 </v>
     <v>       0.00000000       0.00000000       1.48054339 </v>
    </varray>
    <i name="volume">      3.24536406 </i>
    <varray name="rec_basis" >
     <v>       0.67542769       0.00000000      -0.00000000 </v>
     <v>      -0.00000000       0.67542769      -0.00000000 </v>
     <v>       0.00000000       0.00000000       0.67542769 </v>
    </varray>
   </crystal>
   <varray name="positions" >
    <v>       0.00000000       0.00000000       0.00000000 </v>
   </varray>
  </structure>
  <varray name="forces" >
   <v>       0.00000000      -0.00000000      -0.00000000 </v>
  </varray>
  <varray name="stress" >
   <v>   34043.45897813      -0.00000000       0.00000000 </v>
   <v>      -0.00000000   34043.45897813      -0.00000000 </v>
   <v>       0.00000000      -0.00000000   34043.45897813 </v>
  </varray>
  <energy>
   <i name="e_fr_energy">     31.07293191 </i>
   <i name="e_wo_entrp">     31.08304529 </i>
   <i name="e_0_energy">     31.07798860 </i>
  </energy>
  <time name="totalsc">    0.26    0.49</time>
 </calculation>
 <calculation>
  <scstep>
   <time name="dav">    0.03    0.03</time>
   <time name="total">    0.03    0.03</time>
   <energy>
    <i name="alphaZ">      0.93738400 </i>
    <i name="ewald">   -111.35436815 </i>
    <i name="hartreedc">     -0.95976944 </i>
    <i name="XCdc">     -9.40815933 </i>
    <i name="pawpsdc">    150.15693378 </i>
    <i name="pawaedc">   -135.54697061 </i>
    <i name="eentropy">     -0.00925353 </i>
    <i name="bandstr">     -8.72888563 </i>
    <i name="atom">    103.43265638 </i>
    <i name="e_fr_energy">    -11.48043254 </i>
    <i name="e_wo_entrp">    -11.47117900 </i>
    <i name="e_0_energy">    -11.47580577 </i>
   </energy>
  </scstep>
  <scstep>
   <time name="dav">    0.02    0.02</time>
   <time name="total">    0.02    0.06</time>
   <energy>
    <i name="e_fr_energy">     -7.52245899 </i>
    <i name="e_wo_entrp">     -7.51629057 </i>
    <i name="e_0_energy">     -7.51937478 </i>
   </energy>
  </scstep>
  <scstep>
   <time name="dav">    0.02    0.02</time>
   <time name="total">    0.03    0.03</time>
   <energy>
    <i name="e_fr_energy">     -4.86707361 </i>
    <i name="e_wo_entrp">     -4.86699484 </i>
    <i name="e_0_energy">     -4.86703423 </i>
   </energy>
  </scstep>
  <scstep>
   <time name="dav">    0.02    0.02</time>
   <time name="total">    0.03    0.06</time>
   <energy>
    <i name="e_fr_energy">     -4.85188569 </i>
    <i name="e_wo_entrp">     -4.85177315 </i>
    <i name="e_0_energy">     -4.85182942 </i>
   </energy>
  </scstep>
  <scstep>
   <time name="dav">    0.02    0.02</time>
   <time name="total">    0.03    0.04</time>
   <energy>
    <i name="e_fr_energy">     -4.84915796 </i>
    <i name="e_wo_entrp">     -4.84903105 </i>
    <i name="e_0_energy">     -4.84909451 </i>
   </energy>
  </scstep>
  <scstep>
   <time name="dav">    0.02    0.02</time>
   <time name="total">    0.03    0.06</time>
   <energy>
    <i name="e_fr_energy">     -4.84907009 </i>
    <i name="e_wo_entrp">     -4.84893801 </i>
    <i name="e_0_energy">     -4.84900405 </i>
   </energy>
  </scstep>
  <scstep>
   <time name="dav">    0.02    0.02</time>
   <time name="total">    0.03    0.03</time>
   <energy>
    <i name="e_fr_energy">     -4.84903158 </i>
    <i name="e_wo_entrp">     -4.84890090 </i>
    <i name="e_0_energy">     -4.84896624 </i>
   </energy>
  </scstep>
  <scstep>
   <time name="dav">    0.01    0.01</time>
   <time name="total">    0.02    0.05</time>
   <energy>
    <i name="alphaZ">      0.93738400 </i>
    <i name="ewald">   -111.35436815 </i>
    <i name="hartreedc">     -3.86192742 </i>
    <i name="XCdc">     -9.83144200 </i>
    <i name="pawpsdc">     32.85536245 </i>
    <i name="pawaedc">    -15.41524037 </i>
    <i name="eentropy">     -0.00013062 </i>
    <i name="bandstr">     -1.61132594 </i>
    <i name="atom">    103.43265638 </i>
    <i name="e_fr_energy">     -4.84903167 </i>
    <i name="e_wo_entrp">     -4.84890105 </i>
    <i name="e_0_energy">     -4.84896636 </i>
   </energy>
  </scstep>
  <structure>
   <crystal>
    <varray name="basis" >
     <v>       2.93524040       0.00000000      -0.00000000 </v>
     <v>      -0.00000000       2.93524040      -0.00000000 </v>
     <v>       0.00000000       0.00000000       2.93524040 </v>
    </varray>
    <i name="volume">     25.28896346 </i>
    <varray name="rec_basis" >
     <v>       0.34068760       0.00000000      -0.00000000 </v>
     <v>      -0.00000000       0.34068760      -0.00000000 </v>
     <v>       0.00000000       0.00000000       0.34068760 </v>
    </varray>
   </crystal>
   <varray name="positions" >
    <v>      -0.00000000      -0.00000000      -0.00000000 </v>
   </varray>
  </structure>
  <varray name="forces" >
   <v>       0.00000000       0.00000000       0.00000000 </v>
  </varray>
  <varray name="stress" >
   <v>    -171.56787582       0.00000000       0.00000000 </v>
   <v>       0.00000000    -171.56787582      -0.00000000 </v>
   <v>      -0.00000000       0.00000000    -171.56787582 </v>
  </varray>
  <energy>
   <i name="e_fr_energy">     -4.84903167 </i>
   <i name="e_wo_entrp">     -4.84890105 </i>
   <i name="e_0_energy">     -4.84896636 </i>
  </energy>
  <time name="totalsc">    0.25    0.49</time>
 </calculation>
 <calculation>
  <scstep>
   <time name="dav">    0.02    0.02</time>
   <time name="total">    0.03    0.03</time>
   <energy>
    <i name="alphaZ">      2.20249609 </i>
    <i name="ewald">   -148.03797256 </i>
    <i name="hartreedc">     -5.13420234 </i>
    <i name="XCdc">     -8.30503490 </i>
    <i name="pawpsdc">     32.84491640 </i>
    <i name="pawaedc">    -15.40452698 </i>
    <i name="eentropy">     -0.00000000 </i>
    <i name="bandstr">     31.50438654 </i>
    <i name="atom">    103.43265638 </i>
    <i name="e_fr_energy">     -6.89728138 </i>
    <i name="e_wo_entrp">     -6.89728138 </i>
    <i name="e_0_energy">     -6.89728138 </i>
   </energy>
  </scstep>
  <scstep>
   <time name="dav">    0.02    0.03</time>
   <time name="total">    0.03    0.07</time>
   <energy>
    <i name="e_fr_energy">     -5.42884741 </i>
    <i name="e_wo_entrp">     -5.42884741 </i>
    <i name="e_0_energy">     -5.42884741 </i>
   </energy>
  </scstep>
  <scstep>
   <time name="dav">    0.02    0.02</time>
   <time name="total">    0.03    0.03</time>
   <energy>
    <i name="e_fr_energy">     -4.65340025 </i>
    <i name="e_wo_entrp">     -4.65340025 </i>
    <i name="e_0_energy">     -4.65340025 </i>
   </energy>
  </scstep>
  <scstep>
   <time name="dav">    0.02    0.02</time>
   <time name="total">    0.03    0.06</time>
   <energy>
    <i name="e_fr_energy">     -4.64984376 </i>
    <i name="e_wo_entrp">     -4.64984375 </i>
    <i name="e_0_energy">     -4.64984375 </i>
   </energy>
  </scstep>
  <scstep>
   <time name="dav">    0.02    0.02</time>
   <time name="total">    0.03    0.03</time>
   <energy>
    <i name="e_fr_energy">     -4.64980984 </i>
    <i name="e_wo_entrp">     -4.64980983 </i>
    <i name="e_0_energy">     -4.64980983 </i>
   </energy>
  </scstep>
  <scstep>
   <time name="dav">    0.02    0.02</time>
   <time name="total">    0.02    0.03</time>
   <energy>
    <i name="alphaZ">      2.20249609 </i>
    <i name="ewald">   -148.03797256 </i>
    <i name="hartreedc">     -0.90687428 </i>
    <i name="XCdc">     -7.87269742 </i>
    <i name="pawpsdc">     43.05953826 </i>
    <i name="pawaedc">    -25.88425635 </i>
    <i name="eentropy">     -0.00000001 </i>
    <i name="bandstr">     29.35730365 </i>
    <i name="atom">    103.43265638 </i>
    <i name="e_fr_energy">     -4.64980623 </i>
    <i name="e_wo_entrp">     -4.64980622 </i>
    <i name="e_0_energy">     -4.64980623 </i>
   </energy>
  </scstep>
  <structure>
   <crystal>
    <varray name="basis" >
     <v>       2.20789190       0.00000000      -0.00000000 </v>
     <v>      -0.00000000       2.20789190      -0.00000000 </v>
     <v>       0.00000000       0.00000000       2.20789190 </v>
    </varray>
    <i name="volume">     10.76300190 </i>
    <varray name="rec_basis" >
     <v>       0.45292073       0.00000000      -0.00000000 </v>
     <v>      -0.00000000       0.45292073      -0.00000000 </v>
     <v>       0.00000000       0.00000000       0.45292073 </v>
    </varray>
   </crystal>
   <varray name="positions" >
    <v>      -0.00000000      -0.00000000      -0.00000000 </v>
   </varray>
  </structure>
  <varray name="forces" >
   <v>       0.00000000       0.00000000       0.00000000 </v>
  </varray>
  <varray name="stress" >
   <v>     855.40520801       0.00000000      -0.00000000 </v>
   <v>      -0.00000000     855.40520801      -0.00000000 </v>
   <v>      -0.00000000       0.00000000     855.40520801 </v>
  </varray>
  <energy>
   <i name="e_fr_energy">     -4.64980623 </i>
   <i name="e_wo_entrp">     -4.64980622 </i>
   <i name="e_0_energy">     -4.64980623 </i>
  </energy>
  <time name="totalsc">    0.21    0.43</time>
 </calculation>
 <calculation>
  <scstep>
   <time name="dav">    0.02    0.02</time>
   <time name="total">    0.03    0.03</time>
   <energy>
    <i name="alphaZ">      1.20133987 </i>
    <i name="ewald">   -120.95487496 </i>
    <i name="hartreedc">     -0.74096723 </i>
    <i name="XCdc">     -9.19392105 </i>
    <i name="pawpsdc">     43.03602949 </i>
    <i name="pawaedc">    -25.86030216 </i>
    <i name="eentropy">     -0.00028157 </i>
    <i name="bandstr">      2.85962704 </i>
    <i name="atom">    103.43265638 </i>
    <i name="e_fr_energy">     -6.22069420 </i>
    <i name="e_wo_entrp">     -6.22041263 </i>
    <i name="e_0_energy">     -6.22055342 </i>
   </energy>
  </scstep>
  <scstep>
   <time name="dav">    0.02    0.02</time>
   <time name="total">    0.02    0.04</time>
   <energy>
    <i name="e_fr_energy">     -5.70093358 </i>
    <i name="e_wo_entrp">     -5.70075493 </i>
    <i name="e_0_energy">     -5.70084426 </i>
   </energy>
  </scstep>
  <scstep>
   <time name="dav">    0.02    0.02</time>
   <time name="total">    0.03    0.05</time>
   <energy>
    <i name="e_fr_energy">     -5.41296088 </i>
    <i name="e_wo_entrp">     -5.41284890 </i>
    <i name="e_0_energy">     -5.41290489 </i>
   </energy>
  </scstep>
  <scstep>
   <time name="dav">    0.02    0.02</time>
   <time name="total">    0.03    0.03</time>
   <energy>
    <i name="e_fr_energy">     -5.41218180 </i>
    <i name="e_wo_entrp">     -5.41206838 </i>
    <i name="e_0_energy">     -5.41212509 </i>
   </energy>
  </scstep>
  <scstep>
   <time name="dav">    0.02    0.02</time>
   <time name="total">    0.03    0.05</time>
   <energy>
    <i name="e_fr_energy">     -5.41175920 </i>
    <i name="e_wo_entrp">     -5.41164486 </i>
    <i name="e_0_energy">     -5.41170203 </i>
   </energy>
  </scstep>
  <scstep>
   <time name="dav">    0.02    0.02</time>
   <time name="total">    0.02    0.02</time>
   <energy>
    <i name="alphaZ">      1.20133987 </i>
    <i name="ewald">   -120.95487496 </i>
    <i name="hartreedc">     -2.60004630 </i>
    <i name="XCdc">     -9.35639569 </i>
    <i name="pawpsdc">     34.06788151 </i>
    <i name="pawaedc">    -16.66150701 </i>
    <i name="eentropy">     -0.00011443 </i>
    <i name="bandstr">      5.45930382 </i>
    <i name="atom">    103.43265638 </i>
    <i name="e_fr_energy">     -5.41175682 </i>
    <i name="e_wo_entrp">     -5.41164239 </i>
    <i name="e_0_energy">     -5.41169961 </i>
   </energy>
  </scstep>
  <structure>
   <crystal>
    <varray name="basis" >
     <v>       2.70226264       0.00000000      -0.00000000 </v>
     <v>      -0.00000000       2.70226264      -0.00000000 </v>
     <v>       0.00000000       0.00000000       2.70226264 </v>
    </varray>
    <i name="volume">     19.73252548 </i>
    <varray name="rec_basis" >
     <v>       0.37006025       0.00000000      -0.00000000 </v>
     <v>      -0.00000000       0.37006025      -0.00000000 </v>
     <v>       0.00000000       0.00000000       0.37006025 </v>
    </varray>
   </crystal>
   <varray name="positions" >
    <v>      -0.00000000      -0.00000000      -0.00000000 </v>
   </varray>
  </structure>
  <varray name="forces" >
   <v>       0.00000000      -0.00000000      -0.00000000 </v>
  </varray>
  <varray name="stress" >
   <v>    -136.03204182      -0.00000000      -0.00000000 </v>
   <v>      -0.00000000    -136.03204182       0.00000000 </v>
   <v>       0.00000000       0.00000000    -136.03204182 </v>
  </varray>
  <energy>
   <i name="e_fr_energy">     -5.41175682 </i>
   <i name="e_wo_entrp">     -5.41164239 </i>
   <i name="e_0_energy">     -5.41169961 </i>
  </energy>
  <time name="totalsc">    0.19    0.35</time>
 </calculation>
 <calculation>
  <scstep>
   <time name="dav">    0.02    0.02</time>
   <time name="total">    0.03    0.03</time>
   <energy>
    <i name="alphaZ">      1.69437289 </i>
    <i name="ewald">   -135.64519408 </i>
    <i name="hartreedc">     -2.91604665 </i>
    <i name="XCdc">     -8.70575376 </i>
    <i name="pawpsdc">     34.11583578 </i>
    <i name="pawaedc">    -16.71083006 </i>
    <i name="eentropy">     -0.00279868 </i>
    <i name="bandstr">     18.87420262 </i>
    <i name="atom">    103.43265638 </i>
    <i name="e_fr_energy">     -5.86355554 </i>
    <i name="e_wo_entrp">     -5.86075686 </i>
    <i name="e_0_energy">     -5.86215620 </i>
   </energy>
  </scstep>
  <scstep>
   <time name="dav">    0.02    0.02</time>
   <time name="total">    0.02    0.04</time>
   <energy>
    <i name="e_fr_energy">     -5.63810074 </i>
    <i name="e_wo_entrp">     -5.63389245 </i>
    <i name="e_0_energy">     -5.63599659 </i>
   </energy>
  </scstep>
  <scstep>
   <time name="dav">    0.02    0.02</time>
   <time name="total">    0.03    0.04</time>
   <energy>
    <i name="e_fr_energy">     -5.52107014 </i>
    <i name="e_wo_entrp">     -5.51442863 </i>
    <i name="e_0_energy">     -5.51774939 </i>
   </energy>
  </scstep>
  <scstep>
   <time name="dav">    0.02    0.02</time>
   <time name="total">    0.03    0.03</time>
   <energy>
    <i name="e_fr_energy">     -5.52058049 </i>
    <i name="e_wo_entrp">     -5.51392971 </i>
    <i name="e_0_energy">     -5.51725510 </i>
   </energy>
  </scstep>
  <scstep>
   <time name="dav">    0.02    0.02</time>
   <time name="total">    0.03    0.05</time>
   <energy>
    <i name="e_fr_energy">     -5.52053495 </i>
    <i name="e_wo_entrp">     -5.51387741 </i>
    <i name="e_0_energy">     -5.51720618 </i>
   </energy>
  </scstep>
  <scstep>
   <time name="dav">    0.01    0.01</time>
   <time name="total">    0.02    0.02</time>
   <energy>
    <i name="alphaZ">      1.69437289 </i>
    <i name="ewald">   -135.64519408 </i>
    <i name="hartreedc">     -1.42232722 </i>
    <i name="XCdc">     -8.56020389 </i>
    <i name="pawpsdc">     37.61825107 </i>
    <i name="pawaedc">    -20.30718148 </i>
    <i name="eentropy">     -0.00665693 </i>
    <i name="bandstr">     17.67574875 </i>
    <i name="atom">    103.43265638 </i>
    <i name="e_fr_energy">     -5.52053451 </i>
    <i name="e_wo_entrp">     -5.51387757 </i>
    <i name="e_0_energy">     -5.51720604 </i>
   </energy>
  </scstep>
  <structure>
   <crystal>
    <varray name="basis" >
     <v>       2.40960870       0.00000000      -0.00000000 </v>
     <v>      -0.00000000       2.40960870      -0.00000000 </v>
     <v>       0.00000000       0.00000000       2.40960870 </v>
    </varray>
    <i name="volume">     13.99070402 </i>
    <varray name="rec_basis" >
     <v>       0.41500514       0.00000000      -0.00000000 </v>
     <v>      -0.00000000       0.41500514      -0.00000000 </v>
     <v>       0.00000000       0.00000000       0.41500514 </v>
    </varray>
   </crystal>
   <varray name="positions" >
    <v>      -0.00000000      -0.00000000      -0.00000000 </v>
   </varray>
  </structure>
  <varray name="forces" >
   <v>       0.00000000      -0.00000000       0.00000000 </v>
  </varray>
  <varray name="stress" >
   <v>     146.05308085       0.00000000      -0.00000000 </v>
   <v>      -0.00000000     146.05308085      -0.00000000 </v>
   <v>      -0.00000000       0.00000000     146.05308085 </v>
  </varray>
  <energy>
   <i name="e_fr_energy">     -5.52053451 </i>
   <i name="e_wo_entrp">     -5.51387757 </i>
   <i name="e_0_energy">     -5.51720604 </i>
  </energy>
  <time name="totalsc">    0.20    0.44</time>
 </calculation>
 <calculation>
  <scstep>
   <time name="dav">    0.02    0.02</time>
   <time name="total">    0.03    0.03</time>
   <energy>
    <i name="alphaZ">      1.45328072 </i>
    <i name="ewald">   -128.87972016 </i>
    <i name="hartreedc">     -1.35137109 </i>
    <i name="XCdc">     -8.87697662 </i>
    <i name="pawpsdc">     37.60016687 </i>
    <i name="pawaedc">    -20.28867531 </i>
    <i name="eentropy">     -0.00471538 </i>
    <i name="bandstr">     11.25620131 </i>
    <i name="atom">    103.43265638 </i>
    <i name="e_fr_energy">     -5.65915327 </i>
    <i name="e_wo_entrp">     -5.65443789 </i>
    <i name="e_0_energy">     -5.65679558 </i>
   </energy>
  </scstep>
  <scstep>
   <time name="dav">    0.02    0.02</time>
   <time name="total">    0.02    0.04</time>
   <energy>
    <i name="e_fr_energy">     -5.61932052 </i>
    <i name="e_wo_entrp">     -5.61384123 </i>
    <i name="e_0_energy">     -5.61658087 </i>
   </energy>
  </scstep>
  <scstep>
   <time name="dav">    0.02    0.02</time>
   <time name="total">    0.03    0.05</time>
   <energy>
    <i name="e_fr_energy">     -5.59830434 </i>
    <i name="e_wo_entrp">     -5.59170725 </i>
    <i name="e_0_energy">     -5.59500579 </i>
   </energy>
  </scstep>
  <scstep>
   <time name="dav">    0.02    0.02</time>
   <time name="total">    0.03    0.04</time>
   <energy>
    <i name="e_fr_energy">     -5.59823280 </i>
    <i name="e_wo_entrp">     -5.59164436 </i>
    <i name="e_0_energy">     -5.59493858 </i>
   </energy>
  </scstep>
  <scstep>
   <time name="dav">    0.02    0.02</time>
   <time name="total">    0.03    0.05</time>
   <energy>
    <i name="e_fr_energy">     -5.59820914 </i>
    <i name="e_wo_entrp">     -5.59161957 </i>
    <i name="e_0_energy">     -5.59491436 </i>
   </energy>
  </scstep>
  <scstep>
   <time name="dav">    0.01    0.01</time>
   <time name="total">    0.02    0.03</time>
   <energy>
    <i name="alphaZ">      1.45328072 </i>
    <i name="ewald">   -128.87972016 </i>
    <i name="hartreedc">     -1.88102424 </i>
    <i name="XCdc">     -8.93561463 </i>
    <i name="pawpsdc">     35.80091400 </i>
    <i name="pawaedc">    -18.44080082 </i>
    <i name="eentropy">     -0.00658873 </i>
    <i name="bandstr">     11.85868845 </i>
    <i name="atom">    103.43265638 </i>
    <i name="e_fr_energy">     -5.59820902 </i>
    <i name="e_wo_entrp">     -5.59162029 </i>
    <i name="e_0_energy">     -5.59491465 </i>
   </energy>
  </scstep>
  <structure>
   <crystal>
    <varray name="basis" >
     <v>       2.53609986       0.00000000      -0.00000000 </v>
     <v>      -0.00000000       2.53609986      -0.00000000 </v>
     <v>       0.00000000       0.00000000       2.53609986 </v>
    </varray>
    <i name="volume">     16.31169340 </i>
    <varray name="rec_basis" >
     <v>       0.39430624       0.00000000      -0.00000000 </v>
     <v>      -0.00000000       0.39430624      -0.00000000 </v>
     <v>       0.00000000       0.00000000       0.39430624 </v>
    </varray>
   </crystal>
   <varray name="positions" >
    <v>      -0.00000000      -0.00000000      -0.00000000 </v>
   </varray>
  </structure>
  <varray name="forces" >
   <v>      -0.00000000      -0.00000000       0.00000000 </v>
  </varray>
  <varray name="stress" >
   <v>     -18.62276672       0.00000000      -0.00000000 </v>
   <v>      -0.00000000     -18.62276672       0.00000000 </v>
   <v>      -0.00000000       0.00000000     -18.62276672 </v>
  </varray>
  <energy>
   <i name="e_fr_energy">     -5.59820902 </i>
   <i name="e_wo_entrp">     -5.59162029 </i>
   <i name="e_0_energy">     -5.59491465 </i>
  </energy>
  <time name="totalsc">    0.19    0.43</time>
 </calculation>
 <calculation>
  <scstep>
   <time name="dav">    0.02    0.02</time>
   <time name="total">    0.03    0.03</time>
   <energy>
    <i name="alphaZ">      1.48179072 </i>
    <i name="ewald">   -129.71704208 </i>
    <i name="hartreedc">     -1.89322221 </i>
    <i name="XCdc">     -8.89703382 </i>
    <i name="pawpsdc">     35.81130251 </i>
    <i name="pawaedc">    -18.45145609 </i>
    <i name="eentropy">     -0.00887402 </i>
    <i name="bandstr">     12.64062267 </i>
    <i name="atom">    103.43265638 </i>
    <i name="e_fr_energy">     -5.60125594 </i>
    <i name="e_wo_entrp">     -5.59238193 </i>
    <i name="e_0_energy">     -5.59681894 </i>
   </energy>
  </scstep>
  <scstep>
   <time name="dav">    0.02    0.02</time>
   <time name="total">    0.02    0.03</time>
   <energy>
    <i name="e_fr_energy">     -5.60057744 </i>
    <i name="e_wo_entrp">     -5.59181542 </i>
    <i name="e_0_energy">     -5.59619643 </i>
   </energy>
  </scstep>
  <scstep>
   <time name="dav">    0.02    0.02</time>
   <time name="total">    0.03    0.05</time>
   <energy>
    <i name="e_fr_energy">     -5.60022609 </i>
    <i name="e_wo_entrp">     -5.59161405 </i>
    <i name="e_0_energy">     -5.59592007 </i>
   </energy>
  </scstep>
  <scstep>
   <time name="dav">    0.02    0.02</time>
   <time name="total">    0.02    0.02</time>
   <energy>
    <i name="alphaZ">      1.48179072 </i>
    <i name="ewald">   -129.71704208 </i>
    <i name="hartreedc">     -1.81657551 </i>
    <i name="XCdc">     -8.89015493 </i>
    <i name="pawpsdc">     35.99288575 </i>
    <i name="pawaedc">    -18.63767695 </i>
    <i name="eentropy">     -0.00861226 </i>
    <i name="bandstr">     12.56250416 </i>
    <i name="atom">    103.43265638 </i>
    <i name="e_fr_energy">     -5.60022472 </i>
    <i name="e_wo_entrp">     -5.59161246 </i>
    <i name="e_0_energy">     -5.59591859 </i>
   </energy>
  </scstep>
  <structure>
   <crystal>
    <varray name="basis" >
     <v>       2.51972937       0.00000000      -0.00000000 </v>
     <v>      -0.00000000       2.51972937      -0.00000000 </v>
     <v>       0.00000000       0.00000000       2.51972937 </v>
    </varray>
    <i name="volume">     15.99785263 </i>
    <varray name="rec_basis" >
     <v>       0.39686802       0.00000000      -0.00000000 </v>
     <v>      -0.00000000       0.39686802      -0.00000000 </v>
     <v>       0.00000000       0.00000000       0.39686802 </v>
    </varray>
   </crystal>
   <varray name="positions" >
    <v>      -0.00000000      -0.00000000      -0.00000000 </v>
   </varray>
  </structure>
  <varray name="forces" >
   <v>       0.00000000       0.00000000       0.00000000 </v>
  </varray>
  <varray name="stress" >
   <v>      -1.78673679       0.00000000       0.00000000 </v>
   <v>       0.00000000      -1.78673679       0.00000000 </v>
   <v>      -0.00000000       0.00000000      -1.78673679 </v>
  </varray>
  <energy>
   <i name="e_fr_energy">     -5.60022472 </i>
   <i name="e_wo_entrp">     -5.59161246 </i>
   <i name="e_0_energy">     -5.59591859 </i>
  </energy>
  <time name="totalsc">    0.14    0.29</time>
  <eigenvalues>
   <array>
    <dimension dim="1">band</dimension>
    <dimension dim="2">kpoint</dimension>
    <dimension dim="3">spin</dimension>
    <field>eigene</field>
    <field>occ</field>
    <set>
     <set comment="spin 1">
      <set comment="kpoint 1">
       <r>   -4.4186    1.0000 </r>
       <r>   12.8974    0.0000 </r>
       <r>   12.8974    0.0000 </r>
       <r>   15.1411    0.0000 </r>
       <r>   19.7993    0.0000 </r>
       <r>   19.7993    0.0000 </r>
      </set>
      <set comment="kpoint 2">
       <r>   -3.1920    1.0000 </r>
       <r>    7.8141    1.0000 </r>
       <r>   13.8968    0.0000 </r>
       <r>   15.8447    0.0000 </r>
       <r>   20.6873    0.0000 </r>
       <r>   23.4949    0.0000 </r>
      </set>
      <set comment="kpoint 3">
       <r>   -0.8755    1.0000 </r>
       <r>    3.2956    1.0000 </r>
       <r>   15.4773    0.0000 </r>
       <r>   17.8282    0.0000 </r>
       <r>   21.5094    0.0000 </r>
       <r>   21.6853    0.0000 </r>
      </set>
      <set comment="kpoint 4">
       <r>   -1.9711    1.0000 </r>
       <r>    8.2429    0.1931 </r>
       <r>    9.7835    0.0000 </r>
       <r>   16.2064    0.0000 </r>
       <r>   20.1858    0.0000 </r>
       <r>   23.6062    0.0000 </r>
      </set>
      <set comment="kpoint 5">
       <r>    0.3396    1.0000 </r>
       <r>    4.4059    1.0000 </r>
       <r>   11.0422    0.0000 </r>
       <r>   15.9006    0.0000 </r>
       <r>   18.3951    0.0000 </r>
       <r>   22.7881    0.0000 </r>
      </set>
      <set comment="kpoint 6">
       <r>    2.6589    1.0000 </r>
       <r>    5.9112    1.0000 </r>
       <r>    7.1187    1.0000 </r>
       <r>   11.6873    0.0000 </r>
       <r>   20.1172    0.0000 </r>
       <r>   24.5676    0.0000 </r>
      </set>
      <set comment="kpoint 7">
       <r>   -0.7575    1.0000 </r>
       <r>    9.2831    0.0000 </r>
       <r>    9.2831    0.0000 </r>
       <r>   12.4739    0.0000 </r>
       <r>   21.0884    0.0000 </r>
       <r>   21.0884    0.0000 </r>
      </set>
      <set comment="kpoint 8">
       <r>    1.5422    1.0000 </r>
       <r>    5.5006    1.0000 </r>
       <r>   10.9859    0.0000 </r>
       <r>   14.0201    0.0000 </r>
       <r>   17.0763    0.0000 </r>
       <r>   17.4893    0.0000 </r>
      </set>
      <set comment="kpoint 9">
       <r>    3.8338    1.0000 </r>
       <r>    6.9690    1.0000 </r>
       <r>    8.1203    0.8069 </r>
       <r>   12.7353    0.0000 </r>
       <r>   15.2962    0.0000 </r>
       <r>   19.4001    0.0000 </r>
      </set>
      <set comment="kpoint 10">
       <r>    6.0484    1.0000 </r>
       <r>    8.7309    0.0000 </r>
       <r>    8.7309    0.0000 </r>
       <r>   12.3304    0.0000 </r>
       <r>   14.6001    0.0000 </r>
       <r>   14.6001    0.0000 </r>
      </set>
     </set>
    </set>
   </array>
  </eigenvalues>
  <separator name="orbital magnetization" >
   <v name="MAGDIPOLOUT">      0.00000000      0.00000000      0.00000000</v>
  </separator>
  <dos>
   <i name="efermi">      8.18163104 </i>
   <total>
    <array>
     <dimension dim="1">gridpoints</dimension>
     <dimension dim="2">spin</dimension>
     <field>energy</field>
     <field>total</field>
     <field>integrated</field>
     <set>
      <set comment="spin 1">
       <r>    -5.8680     0.0000     0.0000 </r>
       <r>    -5.7617     0.0000     0.0000 </r>
       <r>    -5.6554     0.0000     0.0000 </r>
       <r>    -5.5491     0.0000     0.0000 </r>
       <r>    -5.4428     0.0000     0.0000 </r>
       <r>    -5.3365     0.0000     0.0000 </r>
       <r>    -5.2303     0.0000     0.0000 </r>
       <r>    -5.1240     0.0000     0.0000 </r>
       <r>    -5.0177     0.0000     0.0000 </r>
       <r>    -4.9114     0.0000     0.0000 </r>
       <r>    -4.8051     0.0000     0.0000 </r>
       <r>    -4.6988     0.0000     0.0000 </r>
       <r>    -4.5926     0.0048     0.0005 </r>
       <r>    -4.4863     0.1132     0.0125 </r>
       <r>    -4.3800     0.3751     0.0524 </r>
       <r>    -4.2737     0.1897     0.0726 </r>
       <r>    -4.1674     0.0139     0.0741 </r>
       <r>    -4.0611     0.0001     0.0741 </r>
       <r>    -3.9549     0.0000     0.0741 </r>
       <r>    -3.8486     0.0000     0.0741 </r>
       <r>    -3.7423     0.0000     0.0741 </r>
       <r>    -3.6360     0.0000     0.0741 </r>
       <r>    -3.5297     0.0000     0.0741 </r>
       <r>    -3.4234     0.0011     0.0742 </r>
       <r>    -3.3172     0.0790     0.0826 </r>
       <r>    -3.2109     0.7447     0.1617 </r>
       <r>    -3.1046     1.0395     0.2722 </r>
       <r>    -2.9983     0.2201     0.2956 </r>
       <r>    -2.8920     0.0064     0.2963 </r>
       <r>    -2.7857     0.0000     0.2963 </r>
       <r>    -2.6795     0.0000     0.2963 </r>
       <r>    -2.5732     0.0000     0.2963 </r>
       <r>    -2.4669     0.0000     0.2963 </r>
       <r>    -2.3606     0.0000     0.2963 </r>
       <r>    -2.2543     0.0001     0.2963 </r>
       <r>    -2.1480     0.0128     0.2977 </r>
       <r>    -2.0418     0.3188     0.3316 </r>
       <r>    -1.9355     1.1163     0.4502 </r>
       <r>    -1.8292     0.5960     0.5135 </r>
       <r>    -1.7229     0.0464     0.5185 </r>
       <r>    -1.6166     0.0005     0.5185 </r>
       <r>    -1.5104     0.0000     0.5185 </r>
       <r>    -1.4041     0.0000     0.5185 </r>
       <r>    -1.2978     0.0000     0.5185 </r>
       <r>    -1.1915     0.0000     0.5185 </r>
       <r>    -1.0852     0.0031     0.5189 </r>
       <r>    -0.9789     0.1473     0.5345 </r>
       <r>    -0.8727     0.9640     0.6370 </r>
       <r>    -0.7664     1.1616     0.7604 </r>
       <r>    -0.6601     0.4507     0.8083 </r>
       <r>    -0.5538     0.0597     0.8147 </r>
       <r>    -0.4475     0.0014     0.8148 </r>
       <r>    -0.3412     0.0000     0.8148 </r>
       <r>    -0.2350     0.0000     0.8148 </r>
       <r>    -0.1287     0.0000     0.8148 </r>
       <r>    -0.0224     0.0000     0.8148 </r>
       <r>     0.0839     0.0006     0.8149 </r>
       <r>     0.1902     0.0718     0.8225 </r>
       <r>     0.2965     1.0610     0.9353 </r>
       <r>     0.4027     2.2712     1.1767 </r>
       <r>     0.5090     0.7424     1.2556 </r>
       <r>     0.6153     0.0344     1.2592 </r>
       <r>     0.7216     0.0002     1.2593 </r>
       <r>     0.8279     0.0000     1.2593 </r>
       <r>     0.9342     0.0000     1.2593 </r>
       <r>     1.0404     0.0000     1.2593 </r>
       <r>     1.1467     0.0000     1.2593 </r>
       <r>     1.2530     0.0000     1.2593 </r>
       <r>     1.3593     0.0101     1.2603 </r>
       <r>     1.4656     0.2810     1.2902 </r>
       <r>     1.5719     1.0941     1.4065 </r>
       <r>     1.6781     0.6486     1.4754 </r>
       <r>     1.7844     0.0564     1.4814 </r>
       <r>     1.8907     0.0006     1.4815 </r>
       <r>     1.9970     0.0000     1.4815 </r>
       <r>     2.1033     0.0000     1.4815 </r>
       <r>     2.2095     0.0000     1.4815 </r>
       <r>     2.3158     0.0000     1.4815 </r>
       <r>     2.4221     0.0008     1.4816 </r>
       <r>     2.5284     0.0670     1.4887 </r>
       <r>     2.6347     0.6970     1.5628 </r>
       <r>     2.7410     1.0688     1.6764 </r>
       <r>     2.8472     0.2491     1.7028 </r>
       <r>     2.9535     0.0081     1.7037 </r>
       <r>     3.0598     0.0009     1.7038 </r>
       <r>     3.1661     0.0693     1.7112 </r>
       <r>     3.2724     0.7067     1.7863 </r>
       <r>     3.3787     1.0632     1.8993 </r>
       <r>     3.4849     0.2430     1.9251 </r>
       <r>     3.5912     0.0083     1.9260 </r>
       <r>     3.6975     0.0558     1.9319 </r>
       <r>     3.8038     0.6458     2.0006 </r>
       <r>     3.9101     1.0954     2.1170 </r>
       <r>     4.0164     0.2830     2.1471 </r>
       <r>     4.1226     0.0103     2.1482 </r>
       <r>     4.2289     0.0257     2.1509 </r>
       <r>     4.3352     0.6382     2.2187 </r>
       <r>     4.4415     2.2328     2.4560 </r>
       <r>     4.5478     1.1913     2.5826 </r>
       <r>     4.6541     0.0927     2.5925 </r>
       <r>     4.7603     0.0009     2.5926 </r>
       <r>     4.8666     0.0000     2.5926 </r>
       <r>     4.9729     0.0000     2.5926 </r>
       <r>     5.0792     0.0000     2.5926 </r>
       <r>     5.1855     0.0000     2.5926 </r>
       <r>     5.2918     0.0033     2.5929 </r>
       <r>     5.3980     0.1504     2.6089 </r>
       <r>     5.5043     0.9359     2.7084 </r>
       <r>     5.6106     0.8761     2.8015 </r>
       <r>     5.7169     0.1290     2.8152 </r>
       <r>     5.8232     0.2192     2.8385 </r>
       <r>     5.9295     1.0670     2.9519 </r>
       <r>     6.0357     1.0178     3.0601 </r>
       <r>     6.1420     0.4141     3.1041 </r>
       <r>     6.2483     0.0642     3.1109 </r>
       <r>     6.3546     0.0016     3.1111 </r>
       <r>     6.4609     0.0000     3.1111 </r>
       <r>     6.5671     0.0000     3.1111 </r>
       <r>     6.6734     0.0000     3.1111 </r>
       <r>     6.7797     0.0078     3.1119 </r>
       <r>     6.8860     0.2449     3.1380 </r>
       <r>     6.9923     1.1401     3.2591 </r>
       <r>     7.0986     1.4391     3.4121 </r>
       <r>     7.2048     1.1156     3.5307 </r>
       <r>     7.3111     0.2274     3.5548 </r>
       <r>     7.4174     0.0068     3.5556 </r>
       <r>     7.5237     0.0001     3.5556 </r>
       <r>     7.6300     0.0096     3.5566 </r>
       <r>     7.7363     0.2734     3.5856 </r>
       <r>     7.8425     1.0888     3.7014 </r>
       <r>     7.9488     0.6757     3.7732 </r>
       <r>     8.0551     0.4233     3.8182 </r>
       <r>     8.1614     1.3840     3.9653 </r>
       <r>     8.2677     1.6196     4.1374 </r>
       <r>     8.3740     0.7310     4.2151 </r>
       <r>     8.4802     0.0665     4.2222 </r>
       <r>     8.5865     0.0292     4.2253 </r>
       <r>     8.6928     0.3824     4.2659 </r>
       <r>     8.7991     0.7493     4.3456 </r>
       <r>     8.9054     0.2240     4.3694 </r>
       <r>     9.0117     0.0095     4.3704 </r>
       <r>     9.1179     0.0136     4.3718 </r>
       <r>     9.2242     0.2686     4.4004 </r>
       <r>     9.3305     0.7613     4.4813 </r>
       <r>     9.4368     0.3296     4.5163 </r>
       <r>     9.5431     0.0213     4.5186 </r>
       <r>     9.6494     0.0599     4.5249 </r>
       <r>     9.7556     0.6648     4.5956 </r>
       <r>     9.8619     1.0862     4.7110 </r>
       <r>     9.9682     0.2701     4.7397 </r>
       <r>    10.0745     0.0094     4.7407 </r>
       <r>    10.1808     0.0000     4.7407 </r>
       <r>    10.2871     0.0000     4.7407 </r>
       <r>    10.3933     0.0000     4.7407 </r>
       <r>    10.4996     0.0000     4.7407 </r>
       <r>    10.6059     0.0000     4.7407 </r>
       <r>    10.7122     0.0001     4.7408 </r>
       <r>    10.8185     0.0219     4.7431 </r>
       <r>    10.9247     0.5853     4.8053 </r>
       <r>    11.0310     2.7656     5.0992 </r>
       <r>    11.1373     2.4928     5.3642 </r>
       <r>    11.2436     0.3975     5.4064 </r>
       <r>    11.3499     0.0094     5.4074 </r>
       <r>    11.4562     0.0012     5.4075 </r>
       <r>    11.5624     0.0799     5.4160 </r>
       <r>    11.6687     0.7482     5.4955 </r>
       <r>    11.7750     1.0372     5.6058 </r>
       <r>    11.8813     0.2180     5.6290 </r>
       <r>    11.9876     0.0063     5.6296 </r>
       <r>    12.0939     0.0003     5.6297 </r>
       <r>    12.2001     0.0225     5.6321 </r>
       <r>    12.3064     0.2393     5.6575 </r>
       <r>    12.4127     0.4844     5.7090 </r>
       <r>    12.5190     0.4645     5.7583 </r>
       <r>    12.6253     0.2968     5.7899 </r>
       <r>    12.7316     0.9002     5.8855 </r>
       <r>    12.8378     1.2013     6.0132 </r>
       <r>    12.9441     0.9113     6.1101 </r>
       <r>    13.0504     0.3369     6.1459 </r>
       <r>    13.1567     0.0211     6.1481 </r>
       <r>    13.2630     0.0002     6.1481 </r>
       <r>    13.3693     0.0000     6.1481 </r>
       <r>    13.4755     0.0000     6.1481 </r>
       <r>    13.5818     0.0000     6.1481 </r>
       <r>    13.6881     0.0033     6.1485 </r>
       <r>    13.7944     0.1525     6.1647 </r>
       <r>    13.9007     1.0310     6.2743 </r>
       <r>    14.0070     1.6705     6.4518 </r>
       <r>    14.1132     1.1257     6.5715 </r>
       <r>    14.2195     0.1937     6.5921 </r>
       <r>    14.3258     0.0051     6.5926 </r>
       <r>    14.4321     0.0122     6.5939 </r>
       <r>    14.5384     0.2547     6.6210 </r>
       <r>    14.6446     0.7588     6.7016 </r>
       <r>    14.7509     0.3453     6.7383 </r>
       <r>    14.8572     0.0227     6.7407 </r>
       <r>    14.9635     0.0044     6.7412 </r>
       <r>    15.0698     0.1063     6.7525 </r>
       <r>    15.1761     0.4634     6.8017 </r>
       <r>    15.2823     0.9965     6.9076 </r>
       <r>    15.3886     1.2369     7.0391 </r>
       <r>    15.4949     1.2264     7.1694 </r>
       <r>    15.6012     0.7623     7.2505 </r>
       <r>    15.7075     0.1495     7.2664 </r>
       <r>    15.8138     1.0838     7.3815 </r>
       <r>    15.9200     3.1840     7.7199 </r>
       <r>    16.0263     1.7809     7.9092 </r>
       <r>    16.1326     0.4652     7.9587 </r>
       <r>    16.2389     1.1078     8.0764 </r>
       <r>    16.3452     0.6231     8.1426 </r>
       <r>    16.4515     0.0514     8.1481 </r>
       <r>    16.5577     0.0006     8.1481 </r>
       <r>    16.6640     0.0000     8.1481 </r>
       <r>    16.7703     0.0000     8.1481 </r>
       <r>    16.8766     0.0049     8.1487 </r>
       <r>    16.9829     0.1899     8.1689 </r>
       <r>    17.0892     1.0014     8.2753 </r>
       <r>    17.1954     0.7984     8.3602 </r>
       <r>    17.3017     0.1030     8.3711 </r>
       <r>    17.4080     0.2549     8.3982 </r>
       <r>    17.5143     1.0727     8.5122 </r>
       <r>    17.6206     0.6937     8.5859 </r>
       <r>    17.7269     0.2207     8.6094 </r>
       <r>    17.8331     0.9460     8.7099 </r>
       <r>    17.9394     0.8660     8.8020 </r>
       <r>    18.0457     0.1187     8.8146 </r>
       <r>    18.1520     0.0034     8.8149 </r>
       <r>    18.2583     0.1095     8.8266 </r>
       <r>    18.3646     1.2807     8.9627 </r>
       <r>    18.4708     2.1959     9.1961 </r>
       <r>    18.5771     0.5734     9.2570 </r>
       <r>    18.6834     0.0209     9.2592 </r>
       <r>    18.7897     0.0001     9.2593 </r>
       <r>    18.8960     0.0000     9.2593 </r>
       <r>    19.0022     0.0000     9.2593 </r>
       <r>    19.1085     0.0000     9.2593 </r>
       <r>    19.2148     0.0091     9.2602 </r>
       <r>    19.3211     0.2666     9.2886 </r>
       <r>    19.4274     1.0835     9.4037 </r>
       <r>    19.5337     0.6700     9.4749 </r>
       <r>    19.6399     0.0777     9.4832 </r>
       <r>    19.7462     0.2998     9.5151 </r>
       <r>    19.8525     0.7636     9.5962 </r>
       <r>    19.9588     0.3252     9.6308 </r>
       <r>    20.0651     0.5626     9.6906 </r>
       <r>    20.1714     1.9295     9.8956 </r>
       <r>    20.2776     1.4516    10.0499 </r>
       <r>    20.3839     0.2218    10.0735 </r>
       <r>    20.4902     0.0110    10.0747 </r>
       <r>    20.5965     0.2024    10.0962 </r>
       <r>    20.7028     1.0182    10.2044 </r>
       <r>    20.8091     0.7758    10.2868 </r>
       <r>    20.9153     0.0977    10.2972 </r>
       <r>    21.0216     0.2319    10.3219 </r>
       <r>    21.1279     0.7518    10.4018 </r>
       <r>    21.2342     0.3742    10.4416 </r>
       <r>    21.3405     0.0446    10.4463 </r>
       <r>    21.4468     0.3762    10.4863 </r>
       <r>    21.5530     1.2001    10.6138 </r>
       <r>    21.6593     1.2076    10.7422 </r>
       <r>    21.7656     1.1125    10.8604 </r>
       <r>    21.8719     0.2592    10.8880 </r>
       <r>    21.9782     0.0087    10.8889 </r>
       <r>    22.0845     0.0000    10.8889 </r>
       <r>    22.1907     0.0000    10.8889 </r>
       <r>    22.2970     0.0000    10.8889 </r>
       <r>    22.4033     0.0000    10.8889 </r>
       <r>    22.5096     0.0002    10.8889 </r>
       <r>    22.6159     0.0309    10.8922 </r>
       <r>    22.7221     0.7023    10.9668 </r>
       <r>    22.8284     2.2592    11.2070 </r>
       <r>    22.9347     1.1093    11.3249 </r>
       <r>    23.0410     0.0791    11.3333 </r>
       <r>    23.1473     0.0007    11.3333 </r>
       <r>    23.2536     0.0007    11.3334 </r>
       <r>    23.3598     0.0586    11.3396 </r>
       <r>    23.4661     0.7061    11.4147 </r>
       <r>    23.5724     1.7021    11.5956 </r>
       <r>    23.6787     1.3856    11.7428 </r>
       <r>    23.7850     0.3167    11.7765 </r>
       <r>    23.8913     0.0120    11.7778 </r>
       <r>    23.9975     0.0001    11.7778 </r>
       <r>    24.1038     0.0000    11.7778 </r>
       <r>    24.2101     0.0000    11.7778 </r>
       <r>    24.3164     0.0004    11.7778 </r>
       <r>    24.4227     0.0418    11.7823 </r>
       <r>    24.5290     0.5690    11.8427 </r>
       <r>    24.6352     1.1254    11.9624 </r>
       <r>    24.7415     0.3397    11.9985 </r>
       <r>    24.8478     0.0145    12.0000 </r>
       <r>    24.9541     0.0001    12.0000 </r>
       <r>    25.0604     0.0000    12.0000 </r>
       <r>    25.1667     0.0000    12.0000 </r>
       <r>    25.2729     0.0000    12.0000 </r>
       <r>    25.3792     0.0000    12.0000 </r>
       <r>    25.4855     0.0000    12.0000 </r>
       <r>    25.5918     0.0000    12.0000 </r>
       <r>    25.6981     0.0000    12.0000 </r>
       <r>    25.8044     0.0000    12.0000 </r>
       <r>    25.9106     0.0000    12.0000 </r>
       <r>    26.0169     0.0000    12.0000 </r>
      </set>
     </set>
    </array>
   </total>
  </dos>
 </calculation>
 <structure name="finalpos" >
  <crystal>
   <varray name="basis" >
    <v>       2.51972937       0.00000000      -0.00000000 </v>
    <v>      -0.00000000       2.51972937      -0.00000000 </v>
    <v>       0.00000000       0.00000000       2.51972937 </v>
   </varray>
   <i name="volume">     15.99785263 </i>
   <varray name="rec_basis" >
    <v>       0.39686802       0.00000000      -0.00000000 </v>
    <v>      -0.00000000       0.39686802      -0.00000000 </v>
    <v>       0.00000000       0.00000000       0.39686802 </v>
   </varray>
  </crystal>
  <varray name="positions" >
   <v>      -0.00000000      -0.00000000      -0.00000000 </v>
  </varray>
 </structure>
</modeling>
