Silicon                                 
           1
     3.500000    0.000000    0.000000
     0.000000    3.500000    0.000000
     0.000000    0.000000    3.500000
   Si
     1
Direct configuration=     1
   0.00000000  0.00000000  0.00000000
Silicon                                 
           1
     2.995136    0.000000   -0.000000
    -0.000000    2.995136   -0.000000
     0.000000    0.000000    2.995136
   Si
     1
Direct configuration=     2
   0.00000000  0.00000000  0.00000000
Silicon                                 
           1
     1.480543    0.000000   -0.000000
    -0.000000    1.480543   -0.000000
     0.000000    0.000000    1.480543
   Si
     1
Direct configuration=     3
   0.00000000  0.00000000  0.00000000
Silicon                                 
           1
     2.935240    0.000000   -0.000000
    -0.000000    2.935240   -0.000000
     0.000000    0.000000    2.935240
   Si
     1
Direct configuration=     4
  -0.00000000 -0.00000000 -0.00000000
Silicon                                 
           1
     2.207892    0.000000   -0.000000
    -0.000000    2.207892   -0.000000
     0.000000    0.000000    2.207892
   Si
     1
Direct configuration=     5
  -0.00000000 -0.00000000 -0.00000000
Silicon                                 
           1
     2.702263    0.000000   -0.000000
    -0.000000    2.702263   -0.000000
     0.000000    0.000000    2.702263
   Si
     1
Direct configuration=     6
  -0.00000000 -0.00000000 -0.00000000
Silicon                                 
           1
     2.409609    0.000000   -0.000000
    -0.000000    2.409609   -0.000000
     0.000000    0.000000    2.409609
   Si
     1
Direct configuration=     7
  -0.00000000 -0.00000000 -0.00000000
Silicon                                 
           1
     2.536100    0.000000   -0.000000
    -0.000000    2.536100   -0.000000
     0.000000    0.000000    2.536100
   Si
     1
Direct configuration=     8
  -0.00000000 -0.00000000 -0.00000000
Silicon                                 
           1
     2.519729    0.000000   -0.000000
    -0.000000    2.519729   -0.000000
     0.000000    0.000000    2.519729
   Si
     1
Direct configuration=     9
  -0.00000000 -0.00000000 -0.00000000
