   1   1   0   0
  0.4287500E+02  0.3500000E-09  0.3500000E-09  0.3500000E-09  0.5000000E-15
  1.000000000000000E-004
  CAR 
 Silicon                                 
     26.01692001     -5.86795134  301      8.18163104      1.00000000
     -5.868  0.0000E+00  0.0000E+00
     -5.762  0.0000E+00  0.0000E+00
     -5.655  0.0000E+00  0.0000E+00
     -5.549  0.0000E+00  0.0000E+00
     -5.443  0.0000E+00  0.0000E+00
     -5.337  0.0000E+00  0.0000E+00
     -5.230  0.0000E+00  0.0000E+00
     -5.124  0.0000E+00  0.0000E+00
     -5.018  0.0000E+00  0.0000E+00
     -4.911  0.2228E-13  0.2368E-14
     -4.805  0.3213E-09  0.3415E-10
     -4.699  0.5163E-06  0.5491E-07
     -4.593  0.9643E-04  0.1030E-04
     -4.486  0.2264E-02  0.2510E-03
     -4.380  0.7503E-02  0.1048E-02
     -4.274  0.3793E-02  0.1452E-02
     -4.167  0.2789E-03  0.1481E-02
     -4.061  0.2654E-05  0.1481E-02
     -3.955  0.2987E-08  0.1481E-02
     -3.849  0.3779E-12  0.1481E-02
     -3.742  0.1548E-15  0.1481E-02
     -3.636  0.7081E-11  0.1481E-02
     -3.530  0.3722E-07  0.1481E-02
     -3.423  0.2215E-04  0.1484E-02
     -3.317  0.1579E-02  0.1652E-02
     -3.211  0.1489E-01  0.3235E-02
     -3.105  0.2079E-01  0.5444E-02
     -2.998  0.4402E-02  0.5912E-02
     -2.892  0.1286E-03  0.5926E-02
     -2.786  0.4640E-06  0.5926E-02
     -2.679  0.1927E-09  0.5926E-02
     -2.573  0.8867E-14  0.5926E-02
     -2.467  0.4902E-13  0.5926E-02
     -2.361  0.7535E-09  0.5926E-02
     -2.254  0.1290E-05  0.5926E-02
     -2.148  0.2561E-03  0.5953E-02
     -2.042  0.6377E-02  0.6631E-02
     -1.935  0.2233E-01  0.9004E-02
     -1.829  0.1192E-01  0.1027E-01
     -1.723  0.9282E-03  0.1037E-01
     -1.617  0.9387E-05  0.1037E-01
     -1.510  0.1125E-07  0.1037E-01
     -1.404  0.1518E-11  0.1037E-01
     -1.298  0.4879E-10  0.1037E-01
     -1.192  0.1638E-06  0.1037E-01
     -1.085  0.6283E-04  0.1038E-01
     -0.979  0.2946E-02  0.1069E-01
     -0.873  0.1928E-01  0.1274E-01
     -0.766  0.2323E-01  0.1521E-01
     -0.660  0.9013E-02  0.1617E-01
     -0.554  0.1193E-02  0.1629E-01
     -0.448  0.2767E-04  0.1630E-01
     -0.341  0.8123E-07  0.1630E-01
     -0.235  0.2740E-10  0.1630E-01
     -0.129  0.1484E-11  0.1630E-01
     -0.022  0.1285E-07  0.1630E-01
      0.084  0.1251E-04  0.1630E-01
      0.190  0.1435E-02  0.1645E-01
      0.296  0.2122E-01  0.1871E-01
      0.403  0.4542E-01  0.2353E-01
      0.509  0.1485E-01  0.2511E-01
      0.615  0.6882E-03  0.2518E-01
      0.722  0.4027E-05  0.2519E-01
      0.828  0.2746E-08  0.2519E-01
      0.934  0.2089E-12  0.2519E-01
      1.040  0.2685E-13  0.2519E-01
      1.147  0.4668E-09  0.2519E-01
      1.253  0.9020E-06  0.2519E-01
      1.359  0.2016E-03  0.2521E-01
      1.466  0.5620E-02  0.2580E-01
      1.572  0.2188E-01  0.2813E-01
      1.678  0.1297E-01  0.2951E-01
      1.784  0.1128E-02  0.2963E-01
      1.891  0.1281E-04  0.2963E-01
      1.997  0.1732E-07  0.2963E-01
      2.103  0.2640E-11  0.2963E-01
      2.210  0.4349E-11  0.2963E-01
      2.316  0.2552E-07  0.2963E-01
      2.422  0.1692E-04  0.2963E-01
      2.528  0.1340E-02  0.2977E-01
      2.635  0.1394E-01  0.3126E-01
      2.741  0.2138E-01  0.3353E-01
      2.847  0.4982E-02  0.3406E-01
      2.954  0.1613E-03  0.3407E-01
      3.060  0.1853E-04  0.3408E-01
      3.166  0.1386E-02  0.3422E-01
      3.272  0.1413E-01  0.3573E-01
      3.379  0.2126E-01  0.3799E-01
      3.485  0.4861E-02  0.3850E-01
      3.591  0.1667E-03  0.3852E-01
      3.698  0.1117E-02  0.3864E-01
      3.804  0.1292E-01  0.4001E-01
      3.910  0.2191E-01  0.4234E-01
      4.016  0.5659E-02  0.4294E-01
      4.123  0.2069E-03  0.4296E-01
      4.229  0.5140E-03  0.4302E-01
      4.335  0.1276E-01  0.4437E-01
      4.441  0.4466E-01  0.4912E-01
      4.548  0.2383E-01  0.5165E-01
      4.654  0.1854E-02  0.5185E-01
      4.760  0.1873E-04  0.5185E-01
      4.867  0.2243E-07  0.5185E-01
      4.973  0.3024E-11  0.5185E-01
      5.079  0.5297E-10  0.5185E-01
      5.185  0.1744E-06  0.5185E-01
      5.292  0.6560E-04  0.5186E-01
      5.398  0.3009E-02  0.5218E-01
      5.504  0.1872E-01  0.5417E-01
      5.611  0.1752E-01  0.5603E-01
      5.717  0.2581E-02  0.5630E-01
      5.823  0.4383E-02  0.5677E-01
      5.929  0.2134E-01  0.5904E-01
      6.036  0.2036E-01  0.6120E-01
      6.142  0.8282E-02  0.6208E-01
      6.248  0.1283E-02  0.6222E-01
      6.355  0.3269E-04  0.6222E-01
      6.461  0.1039E-06  0.6222E-01
      6.567  0.3157E-09  0.6222E-01
      6.673  0.6111E-06  0.6222E-01
      6.780  0.1551E-03  0.6224E-01
      6.886  0.4898E-02  0.6276E-01
      6.992  0.2280E-01  0.6518E-01
      7.099  0.2878E-01  0.6824E-01
      7.205  0.2231E-01  0.7061E-01
      7.311  0.4548E-02  0.7110E-01
      7.417  0.1355E-03  0.7111E-01
      7.524  0.1337E-05  0.7111E-01
      7.630  0.1916E-03  0.7113E-01
      7.736  0.5468E-02  0.7171E-01
      7.843  0.2178E-01  0.7403E-01
      7.949  0.1351E-01  0.7546E-01
      8.055  0.8467E-02  0.7636E-01
      8.161  0.2768E-01  0.7931E-01
      8.268  0.3239E-01  0.8275E-01
      8.374  0.1462E-01  0.8430E-01
      8.480  0.1331E-02  0.8444E-01
      8.587  0.5845E-03  0.8451E-01
      8.693  0.7649E-02  0.8532E-01
      8.799  0.1499E-01  0.8691E-01
      8.905  0.4480E-02  0.8739E-01
      9.012  0.1906E-03  0.8741E-01
      9.118  0.2710E-03  0.8744E-01
      9.224  0.5373E-02  0.8801E-01
      9.331  0.1523E-01  0.8963E-01
      9.437  0.6593E-02  0.9033E-01
      9.543  0.4256E-03  0.9037E-01
      9.649  0.1199E-02  0.9050E-01
      9.756  0.1330E-01  0.9191E-01
      9.862  0.2172E-01  0.9422E-01
      9.968  0.5401E-02  0.9479E-01
     10.074  0.1872E-03  0.9481E-01
     10.181  0.8077E-06  0.9481E-01
     10.287  0.4028E-09  0.9481E-01
     10.393  0.2231E-13  0.9481E-01
     10.500  0.1289E-12  0.9481E-01
     10.606  0.1643E-08  0.9481E-01
     10.712  0.2397E-05  0.9482E-01
     10.818  0.4372E-03  0.9486E-01
     10.925  0.1171E-01  0.9611E-01
     11.031  0.5531E-01  0.1020E+00
     11.137  0.4986E-01  0.1073E+00
     11.244  0.7949E-02  0.1081E+00
     11.350  0.1888E-03  0.1081E+00
     11.456  0.2315E-04  0.1082E+00
     11.562  0.1598E-02  0.1083E+00
     11.669  0.1496E-01  0.1099E+00
     11.775  0.2074E-01  0.1121E+00
     11.881  0.4361E-02  0.1126E+00
     11.988  0.1265E-03  0.1126E+00
     12.094  0.6168E-05  0.1126E+00
     12.200  0.4509E-03  0.1126E+00
     12.306  0.4785E-02  0.1131E+00
     12.413  0.9687E-02  0.1142E+00
     12.519  0.9290E-02  0.1152E+00
     12.625  0.5935E-02  0.1158E+00
     12.732  0.1800E-01  0.1177E+00
     12.838  0.2403E-01  0.1203E+00
     12.944  0.1823E-01  0.1222E+00
     13.050  0.6738E-02  0.1229E+00
     13.157  0.4223E-03  0.1230E+00
     13.263  0.3428E-05  0.1230E+00
     13.369  0.3275E-08  0.1230E+00
     13.476  0.5408E-10  0.1230E+00
     13.582  0.1763E-06  0.1230E+00
     13.688  0.6614E-04  0.1230E+00
     13.794  0.3051E-02  0.1233E+00
     13.901  0.2062E-01  0.1255E+00
     14.007  0.3341E-01  0.1290E+00
     14.113  0.2251E-01  0.1314E+00
     14.220  0.3874E-02  0.1318E+00
     14.326  0.1017E-03  0.1319E+00
     14.432  0.2431E-03  0.1319E+00
     14.538  0.5094E-02  0.1324E+00
     14.645  0.1518E-01  0.1340E+00
     14.751  0.6906E-02  0.1348E+00
     14.857  0.4547E-03  0.1348E+00
     14.963  0.8707E-04  0.1348E+00
     15.070  0.2125E-02  0.1350E+00
     15.176  0.9268E-02  0.1360E+00
     15.282  0.1993E-01  0.1382E+00
     15.389  0.2474E-01  0.1408E+00
     15.495  0.2453E-01  0.1434E+00
     15.601  0.1525E-01  0.1450E+00
     15.707  0.2990E-02  0.1453E+00
     15.814  0.2168E-01  0.1476E+00
     15.920  0.6368E-01  0.1544E+00
     16.026  0.3562E-01  0.1582E+00
     16.133  0.9303E-02  0.1592E+00
     16.239  0.2216E-01  0.1615E+00
     16.345  0.1246E-01  0.1629E+00
     16.451  0.1027E-02  0.1630E+00
     16.558  0.1104E-04  0.1630E+00
     16.664  0.1419E-07  0.1630E+00
     16.770  0.3154E-06  0.1630E+00
     16.877  0.9877E-04  0.1630E+00
     16.983  0.3799E-02  0.1634E+00
     17.089  0.2003E-01  0.1655E+00
     17.195  0.1597E-01  0.1672E+00
     17.302  0.2060E-02  0.1674E+00
     17.408  0.5098E-02  0.1680E+00
     17.514  0.2145E-01  0.1702E+00
     17.621  0.1387E-01  0.1717E+00
     17.727  0.4415E-02  0.1722E+00
     17.833  0.1892E-01  0.1742E+00
     17.939  0.1732E-01  0.1760E+00
     18.046  0.2374E-02  0.1763E+00
     18.152  0.6814E-04  0.1763E+00
     18.258  0.2189E-02  0.1765E+00
     18.365  0.2561E-01  0.1793E+00
     18.471  0.4392E-01  0.1839E+00
     18.577  0.1147E-01  0.1851E+00
     18.683  0.4188E-03  0.1852E+00
     18.790  0.1908E-05  0.1852E+00
     18.896  0.1006E-08  0.1852E+00
     19.002  0.3844E-09  0.1852E+00
     19.109  0.7798E-06  0.1852E+00
     19.215  0.1828E-03  0.1852E+00
     19.321  0.5333E-02  0.1858E+00
     19.427  0.2167E-01  0.1881E+00
     19.534  0.1340E-01  0.1895E+00
     19.640  0.1553E-02  0.1897E+00
     19.746  0.5995E-02  0.1903E+00
     19.853  0.1527E-01  0.1919E+00
     19.959  0.6504E-02  0.1926E+00
     20.065  0.1125E-01  0.1938E+00
     20.171  0.3859E-01  0.1979E+00
     20.278  0.2903E-01  0.2010E+00
     20.384  0.4435E-02  0.2015E+00
     20.490  0.2199E-03  0.2015E+00
     20.596  0.4048E-02  0.2019E+00
     20.703  0.2036E-01  0.2041E+00
     20.809  0.1552E-01  0.2057E+00
     20.915  0.1954E-02  0.2059E+00
     21.022  0.4639E-02  0.2064E+00
     21.128  0.1504E-01  0.2080E+00
     21.234  0.7484E-02  0.2088E+00
     21.340  0.8924E-03  0.2089E+00
     21.447  0.7524E-02  0.2097E+00
     21.553  0.2400E-01  0.2123E+00
     21.659  0.2415E-01  0.2148E+00
     21.766  0.2225E-01  0.2172E+00
     21.872  0.5184E-02  0.2178E+00
     21.978  0.1731E-03  0.2178E+00
     22.084  0.7191E-06  0.2178E+00
     22.191  0.3449E-09  0.2178E+00
     22.297  0.1762E-12  0.2178E+00
     22.403  0.2199E-08  0.2178E+00
     22.510  0.3416E-05  0.2178E+00
     22.616  0.6173E-03  0.2178E+00
     22.722  0.1405E-01  0.2193E+00
     22.828  0.4518E-01  0.2241E+00
     22.935  0.2219E-01  0.2265E+00
     23.041  0.1582E-02  0.2267E+00
     23.147  0.1459E-04  0.2267E+00
     23.254  0.1347E-04  0.2267E+00
     23.360  0.1172E-02  0.2268E+00
     23.466  0.1412E-01  0.2283E+00
     23.572  0.3404E-01  0.2319E+00
     23.679  0.2771E-01  0.2349E+00
     23.785  0.6334E-02  0.2355E+00
     23.891  0.2391E-03  0.2356E+00
     23.998  0.1157E-05  0.2356E+00
     24.104  0.6526E-09  0.2356E+00
     24.210  0.8961E-08  0.2356E+00
     24.316  0.7963E-05  0.2356E+00
     24.423  0.8367E-03  0.2356E+00
     24.529  0.1138E-01  0.2369E+00
     24.635  0.2251E-01  0.2392E+00
     24.742  0.6793E-02  0.2400E+00
     24.848  0.2893E-03  0.2400E+00
     24.954  0.1549E-05  0.2400E+00
     25.060  0.9640E-09  0.2400E+00
     25.167  0.6685E-13  0.2400E+00
     25.273  0.0000E+00  0.2400E+00
     25.379  0.0000E+00  0.2400E+00
     25.486  0.0000E+00  0.2400E+00
     25.592  0.0000E+00  0.2400E+00
     25.698  0.0000E+00  0.2400E+00
     25.804  0.0000E+00  0.2400E+00
     25.911  0.0000E+00  0.2400E+00
     26.017  0.0000E+00  0.2400E+00
