    1    1   50    1
  0.4287500E+02  0.3500000E-09  0.3500000E-09  0.3500000E-09  0.5000000E-15
  1.000000000000000E-004
  CAR 
 Silicon                                 
      4     10      6
 
  0.8333333E-01  0.8333333E-01  0.8333333E-01  0.3703704E-01
      1         -4.418639   1.000000
      2         12.897446   0.000000
      3         12.897446   0.000000
      4         15.141148   0.000000
      5         19.799254   0.000000
      6         19.799254   0.000000
 
  0.2500000E+00  0.8333333E-01  0.8333333E-01  0.1111111E+00
      1         -3.191951   1.000000
      2          7.814139   1.000000
      3         13.896759   0.000000
      4         15.844666   0.000000
      5         20.687338   0.000000
      6         23.494869   0.000000
 
  0.4166667E+00  0.8333333E-01  0.8333333E-01  0.1111111E+00
      1         -0.875452   1.000000
      2          3.295555   1.000000
      3         15.477305   0.000000
      4         17.828170   0.000000
      5         21.509381   0.000000
      6         21.685276   0.000000
 
  0.2500000E+00  0.2500000E+00  0.8333333E-01  0.1111111E+00
      1         -1.971054   1.000000
      2          8.242913   0.193067
      3          9.783481   0.000000
      4         16.206383   0.000000
      5         20.185817   0.000000
      6         23.606175   0.000000
 
  0.4166667E+00  0.2500000E+00  0.8333333E-01  0.2222222E+00
      1          0.339566   1.000000
      2          4.405881   1.000000
      3         11.042185   0.000000
      4         15.900637   0.000000
      5         18.395126   0.000000
      6         22.788132   0.000000
 
  0.4166667E+00  0.4166667E+00  0.8333333E-01  0.1111111E+00
      1          2.658937   1.000000
      2          5.911243   1.000000
      3          7.118711   1.000000
      4         11.687266   0.000000
      5         20.117217   0.000000
      6         24.567608   0.000000
 
  0.2500000E+00  0.2500000E+00  0.2500000E+00  0.3703704E-01
      1         -0.757516   1.000000
      2          9.283113   0.000000
      3          9.283113   0.000000
      4         12.473926   0.000000
      5         21.088356   0.000000
      6         21.088356   0.000000
 
  0.4166667E+00  0.2500000E+00  0.2500000E+00  0.1111111E+00
      1          1.542200   1.000000
      2          5.500572   1.000000
      3         10.985865   0.000000
      4         14.020117   0.000000
      5         17.076296   0.000000
      6         17.489277   0.000000
 
  0.4166667E+00  0.4166667E+00  0.2500000E+00  0.1111111E+00
      1          3.833761   1.000000
      2          6.968952   1.000000
      3          8.120350   0.806933
      4         12.735335   0.000000
      5         15.296184   0.000000
      6         19.400107   0.000000
 
  0.4166667E+00  0.4166667E+00  0.4166667E+00  0.3703704E-01
      1          6.048403   1.000000
      2          8.730920   0.000000
      3          8.730920   0.000000
      4         12.330426   0.000000
      5         14.600056   0.000000
      6         14.600056   0.000000
