DFT Virtual Orbitals Calculation        
   3.90000000000000     
     0.500000    0.500000    0.000000
     0.000000    0.500000    0.500000
     0.500000    0.000000    0.500000
   Si
     1
Direct
  0.000000  0.000000  0.000000
 
   48   48   48
 -2.4346     -2.2939     -1.8829     -1.2337     -.39675     0.56487      1.5812      2.5827      3.5072      4.3046    
  4.9409      5.3986      5.6765      5.7874      5.7555      5.6128      5.3963      5.1443      4.8913      4.6555    
  4.4471      4.2750      4.1466      4.0674      4.0407      4.0674      4.1466      4.2750      4.4471      4.6555    
  4.8913      5.1443      5.3963      5.6128      5.7555      5.7874      5.6765      5.3986      4.9409      4.3046    
  3.5072      2.5827      1.5812     0.56487     -.39675     -1.2337     -1.8829     -2.2939     -2.2939     -2.0180    
 -1.4881     -.74553     0.15270      1.1397      2.1454      3.1039      3.9590      4.6689      5.2081      5.5677    
  5.7538      5.7852      5.6904      5.5041      5.2643      5.0082      4.7626      4.5396      4.3486      4.1978    
  4.0937      4.0405      4.0405      4.0937      4.1978      4.3486      4.5396      4.7626      5.0082      5.2643    
  5.5041      5.6904      5.7852      5.7538      5.5677      5.2081      4.6689      3.9590      3.1039      2.1454    
  1.1397     0.15270     -.74553     -1.4881     -2.0180     -2.2939     -1.8829     -1.4881     -.86508     -.62468E-01
 0.85845      1.8301      2.7856      3.6649      4.4201      5.0186      5.4440      5.6954      5.7859      5.7392    
  5.5869      5.3652      5.1116      4.8591      4.6243      4.4170      4.2461      4.1187      4.0402      4.0136    
  4.0402      4.1187      4.2461      4.4170      4.6243      4.8591      5.1116      5.3652      5.5869      5.7392    
  5.7859      5.6954      5.4440      5.0186      4.4201      3.6649      2.7856      1.8301     0.85845     -.62468E-01
 -.86508     -1.4881     -1.8829     -2.0180     -1.2337     -.74553     -.62468E-01 0.76191      1.6650      2.5818    
  3.4509      4.2206      4.8524      5.3233      5.6258      5.7665      5.7640      5.6459      5.4459      5.2000    
  4.9438      4.6999      4.4790      4.2905      4.1419      4.0395      3.9873      3.9873      4.0395      4.1419    
  4.2905      4.4790      4.6999      4.9438      5.2000      5.4459      5.6459      5.7640      5.7665      5.6258    
  5.3233      4.8524      4.2206      3.4509      2.5818      1.6650     0.76191     -.62468E-01 -.74553     -1.2337    
 -1.4881     -1.4881     -.39675     0.15270     0.85845      1.6650      2.5116      3.3383      4.0916      4.7292    
  5.2228      5.5586      5.7372      5.7716      5.6848      5.5070      5.2724      5.0159      4.7655      4.5338    
  4.3302      4.1629      4.0386      3.9621      3.9362      3.9621      4.0386      4.1629      4.3302      4.5338    
  4.7655      5.0159      5.2724      5.5070      5.6848      5.7716      5.7372      5.5586      5.2228      4.7292    
  4.0916      3.3383      2.5116      1.6650     0.85845     0.15270     -.39675     -.74553     -.86508     -.74553    
 0.56487      1.1397      1.8301      2.5818      3.3383      4.0469      4.6637      5.1563      5.5059      5.7076    
  5.7689      5.7079      5.5507      5.3287      5.0751      4.8205      4.5806      4.3647      4.1813      4.0374    
  3.9385      3.8881      3.8881      3.9385      4.0374      4.1813      4.3647      4.5806      4.8205      5.0751    
  5.3287      5.5507      5.7079      5.7689      5.7076      5.5059      5.1563      4.6637      4.0469      3.3383    
  2.5818      1.8301      1.1397     0.56487     0.15270     -.62468E-01 -.62468E-01 0.15270      1.5812      2.1454    
  2.7856      3.4509      4.0916      4.6637      5.1330      5.4771      5.6862      5.7628      5.7200      5.5798    
  5.3699      5.1214      4.8650      4.6191      4.3936      4.1968      4.0360      3.9170      3.8439      3.8193    
  3.8439      3.9170      4.0360      4.1968      4.3936      4.6191      4.8650      5.1214      5.3699      5.5798    
  5.7200      5.7628      5.6862      5.4771      5.1330      4.6637      4.0916      3.4509      2.7856      2.1454    
  1.5812      1.1397     0.85845     0.76191     0.85845      1.1397      2.5827      3.1039      3.6649      4.2206    
  4.7292      5.1563      5.4771      5.6785      5.7583      5.7254      5.5971      5.3977      5.1552      4.8989    
  4.6495      4.4169      4.2094      4.0344      3.8979      3.8044      3.7569      3.7569      3.8044      3.8979    
  4.0344      4.2094      4.4169      4.6495      4.8989      5.1552      5.3977      5.5971      5.7254      5.7583    
  5.6785      5.4771      5.1563      4.7292      4.2206      3.6649      3.1039      2.5827      2.1454      1.8301    
  1.6650      1.6650      1.8301      2.1454      3.5072      3.9590      4.4201      4.8524      5.2228      5.5059    
  5.6862      5.7583      5.7268      5.6051      5.4136      5.1771      4.9228      4.6719      4.4347      4.2192    
  4.0328      3.8816      3.7703      3.7022      3.6793      3.7022      3.7703      3.8816      4.0328      4.2192    
  4.4347      4.6719      4.9228      5.1771      5.4136      5.6051      5.7268      5.7583      5.6862      5.5059    
  5.2228      4.8524      4.4201      3.9590      3.5072      3.1039      2.7856      2.5818      2.5116      2.5818    
  2.7856      3.1039      4.3046      4.6689      5.0186      5.3233      5.5586      5.7076      5.7628      5.7254    
  5.6051      5.4187      5.1879      4.9369      4.6866      4.4471      4.2263      4.0313      3.8683      3.7419    
  3.6558      3.6122      3.6122      3.6558      3.7419      3.8683      4.0313      4.2263      4.4471      4.6866    
  4.9369      5.1879      5.4187      5.6051      5.7254      5.7628      5.7076      5.5586      5.3233      5.0186    
  4.6689      4.3046      3.9590      3.6649      3.4509      3.3383      3.3383      3.4509      3.6649      3.9590    
  4.9409      5.2081      5.4440      5.6258      5.7372      5.7689      5.7200      5.5971      5.4136      5.1879    
  4.9416      4.6939      4.4544      4.2308      4.0301      3.8581      3.7197      3.6184      3.5567      3.5360    
  3.5567      3.6184      3.7197      3.8581      4.0301      4.2308      4.4544      4.6939      4.9416      5.1879    
  5.4136      5.5971      5.7200      5.7689      5.7372      5.6258      5.4440      5.2081      4.9409      4.6689    
  4.4201      4.2206      4.0916      4.0469      4.0916      4.2206      4.4201      4.6689      5.3986      5.5677    
  5.6954      5.7665      5.7716      5.7079      5.5798      5.3977      5.1771      4.9369      4.6939      4.4568    
  4.2331      4.0293      3.8513      3.7038      3.5903      3.5133      3.4745      3.4745      3.5133      3.5903    
  3.7038      3.8513      4.0293      4.2331      4.4568      4.6939      4.9369      5.1771      5.3977      5.5798    
  5.7079      5.7716      5.7665      5.6954      5.5677      5.3986      5.2081      5.0186      4.8524      4.7292    
  4.6637      4.6637      4.7292      4.8524      5.0186      5.2081      5.6765      5.7538      5.7859      5.7640    
  5.6848      5.5507      5.3699      5.1552      4.9228      4.6866      4.4544      4.2331      4.0290      3.8478    
  3.6942      3.5715      3.4823      3.4282      3.4100      3.4282      3.4823      3.5715      3.6942      3.8478    
  4.0290      4.2331      4.4544      4.6866      4.9228      5.1552      5.3699      5.5507      5.6848      5.7640    
  5.7859      5.7538      5.6765      5.5677      5.4440      5.3233      5.2228      5.1563      5.1330      5.1563    
  5.2228      5.3233      5.4440      5.5677      5.7874      5.7852      5.7392      5.6459      5.5070      5.3287    
  5.1214      4.8989      4.6719      4.4471      4.2308      4.0293      3.8478      3.6910      3.5621      3.4636    
  3.3972      3.3638      3.3638      3.3972      3.4636      3.5621      3.6910      3.8478      4.0293      4.2308    
  4.4471      4.6719      4.8989      5.1214      5.3287      5.5070      5.6459      5.7392      5.7852      5.7874    
  5.7538      5.6954      5.6258      5.5586      5.5059      5.4771      5.4771      5.5059      5.5586      5.6258    
  5.6954      5.7538      5.7555      5.6904      5.5869      5.4459      5.2724      5.0751      4.8650      4.6495    
  4.4347      4.2263      4.0301      3.8513      3.6942      3.5621      3.4574      3.3818      3.3361      3.3208    
  3.3361      3.3818      3.4574      3.5621      3.6942      3.8513      4.0301      4.2263      4.4347      4.6495    
  4.8650      5.0751      5.2724      5.4459      5.5869      5.6904      5.7555      5.7852      5.7859      5.7665    
  5.7372      5.7076      5.6862      5.6785      5.6862      5.7076      5.7372      5.7665      5.7859      5.7852    
  5.6128      5.5041      5.3652      5.2000      5.0159      4.8205      4.6191      4.4169      4.2192      4.0313    
  3.8581      3.7038      3.5715      3.4636      3.3818      3.3268      3.2993      3.2993      3.3268      3.3818    
  3.4636      3.5715      3.7038      3.8581      4.0313      4.2192      4.4169      4.6191      4.8205      5.0159    
  5.2000      5.3652      5.5041      5.6128      5.6904      5.7392      5.7640      5.7716      5.7689      5.7628    
  5.7583      5.7583      5.7628      5.7689      5.7716      5.7640      5.7392      5.6904      5.3963      5.2643    
  5.1116      4.9438      4.7655      4.5806      4.3936      4.2094      4.0328      3.8683      3.7197      3.5903    
  3.4823      3.3972      3.3361      3.2993      3.2870      3.2993      3.3361      3.3972      3.4823      3.5903    
  3.7197      3.8683      4.0328      4.2094      4.3936      4.5806      4.7655      4.9438      5.1116      5.2643    
  5.3963      5.5041      5.5869      5.6459      5.6848      5.7079      5.7200      5.7254      5.7268      5.7254    
  5.7200      5.7079      5.6848      5.6459      5.5869      5.5041      5.1443      5.0082      4.8591      4.6999    
  4.5338      4.3647      4.1968      4.0344      3.8816      3.7419      3.6184      3.5133      3.4282      3.3638    
  3.3208      3.2993      3.2993      3.3208      3.3638      3.4282      3.5133      3.6184      3.7419      3.8816    
  4.0344      4.1968      4.3647      4.5338      4.6999      4.8591      5.0082      5.1443      5.2643      5.3652    
  5.4459      5.5070      5.5507      5.5798      5.5971      5.6051      5.6051      5.5971      5.5798      5.5507    
  5.5070      5.4459      5.3652      5.2643      4.8913      4.7626      4.6243      4.4790      4.3302      4.1813    
  4.0360      3.8979      3.7703      3.6558      3.5567      3.4745      3.4100      3.3638      3.3361      3.3268    
  3.3361      3.3638      3.4100      3.4745      3.5567      3.6558      3.7703      3.8979      4.0360      4.1813    
  4.3302      4.4790      4.6243      4.7626      4.8913      5.0082      5.1116      5.2000      5.2724      5.3287    
  5.3699      5.3977      5.4136      5.4187      5.4136      5.3977      5.3699      5.3287      5.2724      5.2000    
  5.1116      5.0082      4.6555      4.5396      4.4170      4.2905      4.1629      4.0374      3.9170      3.8044    
  3.7022      3.6122      3.5360      3.4745      3.4282      3.3972      3.3818      3.3818      3.3972      3.4282    
  3.4745      3.5360      3.6122      3.7022      3.8044      3.9170      4.0374      4.1629      4.2905      4.4170    
  4.5396      4.6555      4.7626      4.8591      4.9438      5.0159      5.0751      5.1214      5.1552      5.1771    
  5.1879      5.1879      5.1771      5.1552      5.1214      5.0751      5.0159      4.9438      4.8591      4.7626    
  4.4471      4.3486      4.2461      4.1419      4.0386      3.9385      3.8439      3.7569      3.6793      3.6122    
  3.5567      3.5133      3.4823      3.4636      3.4574      3.4636      3.4823      3.5133      3.5567      3.6122    
  3.6793      3.7569      3.8439      3.9385      4.0386      4.1419      4.2461      4.3486      4.4471      4.5396    
  4.6243      4.6999      4.7655      4.8205      4.8650      4.8989      4.9228      4.9369      4.9416      4.9369    
  4.9228      4.8989      4.8650      4.8205      4.7655      4.6999      4.6243      4.5396      4.2750      4.1978    
  4.1187      4.0395      3.9621      3.8881      3.8193      3.7569      3.7022      3.6558      3.6184      3.5903    
  3.5715      3.5621      3.5621      3.5715      3.5903      3.6184      3.6558      3.7022      3.7569      3.8193    
  3.8881      3.9621      4.0395      4.1187      4.1978      4.2750      4.3486      4.4170      4.4790      4.5338    
  4.5806      4.6191      4.6495      4.6719      4.6866      4.6939      4.6939      4.6866      4.6719      4.6495    
  4.6191      4.5806      4.5338      4.4790      4.4170      4.3486      4.1466      4.0937      4.0402      3.9873    
  3.9362      3.8881      3.8439      3.8044      3.7703      3.7419      3.7197      3.7038      3.6942      3.6910    
  3.6942      3.7038      3.7197      3.7419      3.7703      3.8044      3.8439      3.8881      3.9362      3.9873    
  4.0402      4.0937      4.1466      4.1978      4.2461      4.2905      4.3302      4.3647      4.3936      4.4169    
  4.4347      4.4471      4.4544      4.4568      4.4544      4.4471      4.4347      4.4169      4.3936      4.3647    
  4.3302      4.2905      4.2461      4.1978      4.0674      4.0405      4.0136      3.9873      3.9621      3.9385    
  3.9170      3.8979      3.8816      3.8683      3.8581      3.8513      3.8478      3.8478      3.8513      3.8581    
  3.8683      3.8816      3.8979      3.9170      3.9385      3.9621      3.9873      4.0136      4.0405      4.0674    
  4.0937      4.1187      4.1419      4.1629      4.1813      4.1968      4.2094      4.2192      4.2263      4.2308    
  4.2331      4.2331      4.2308      4.2263      4.2192      4.2094      4.1968      4.1813      4.1629      4.1419    
  4.1187      4.0937      4.0407      4.0405      4.0402      4.0395      4.0386      4.0374      4.0360      4.0344    
  4.0328      4.0313      4.0301      4.0293      4.0290      4.0293      4.0301      4.0313      4.0328      4.0344    
  4.0360      4.0374      4.0386      4.0395      4.0402      4.0405      4.0407      4.0405      4.0402      4.0395    
  4.0386      4.0374      4.0360      4.0344      4.0328      4.0313      4.0301      4.0293      4.0290      4.0293    
  4.0301      4.0313      4.0328      4.0344      4.0360      4.0374      4.0386      4.0395      4.0402      4.0405    
  4.0674      4.0937      4.1187      4.1419      4.1629      4.1813      4.1968      4.2094      4.2192      4.2263    
  4.2308      4.2331      4.2331      4.2308      4.2263      4.2192      4.2094      4.1968      4.1813      4.1629    
  4.1419      4.1187      4.0937      4.0674      4.0405      4.0136      3.9873      3.9621      3.9385      3.9170    
  3.8979      3.8816      3.8683      3.8581      3.8513      3.8478      3.8478      3.8513      3.8581      3.8683    
  3.8816      3.8979      3.9170      3.9385      3.9621      3.9873      4.0136      4.0405      4.1466      4.1978    
  4.2461      4.2905      4.3302      4.3647      4.3936      4.4169      4.4347      4.4471      4.4544      4.4568    
  4.4544      4.4471      4.4347      4.4169      4.3936      4.3647      4.3302      4.2905      4.2461      4.1978    
  4.1466      4.0937      4.0402      3.9873      3.9362      3.8881      3.8439      3.8044      3.7703      3.7419    
  3.7197      3.7038      3.6942      3.6910      3.6942      3.7038      3.7197      3.7419      3.7703      3.8044    
  3.8439      3.8881      3.9362      3.9873      4.0402      4.0937      4.2750      4.3486      4.4170      4.4790    
  4.5338      4.5806      4.6191      4.6495      4.6719      4.6866      4.6939      4.6939      4.6866      4.6719    
  4.6495      4.6191      4.5806      4.5338      4.4790      4.4170      4.3486      4.2750      4.1978      4.1187    
  4.0395      3.9621      3.8881      3.8193      3.7569      3.7022      3.6558      3.6184      3.5903      3.5715    
  3.5621      3.5621      3.5715      3.5903      3.6184      3.6558      3.7022      3.7569      3.8193      3.8881    
  3.9621      4.0395      4.1187      4.1978      4.4471      4.5396      4.6243      4.6999      4.7655      4.8205    
  4.8650      4.8989      4.9228      4.9369      4.9416      4.9369      4.9228      4.8989      4.8650      4.8205    
  4.7655      4.6999      4.6243      4.5396      4.4471      4.3486      4.2461      4.1419      4.0386      3.9385    
  3.8439      3.7569      3.6793      3.6122      3.5567      3.5133      3.4823      3.4636      3.4574      3.4636    
  3.4823      3.5133      3.5567      3.6122      3.6793      3.7569      3.8439      3.9385      4.0386      4.1419    
  4.2461      4.3486      4.6555      4.7626      4.8591      4.9438      5.0159      5.0751      5.1214      5.1552    
  5.1771      5.1879      5.1879      5.1771      5.1552      5.1214      5.0751      5.0159      4.9438      4.8591    
  4.7626      4.6555      4.5396      4.4170      4.2905      4.1629      4.0374      3.9170      3.8044      3.7022    
  3.6122      3.5360      3.4745      3.4282      3.3972      3.3818      3.3818      3.3972      3.4282      3.4745    
  3.5360      3.6122      3.7022      3.8044      3.9170      4.0374      4.1629      4.2905      4.4170      4.5396    
  4.8913      5.0082      5.1116      5.2000      5.2724      5.3287      5.3699      5.3977      5.4136      5.4187    
  5.4136      5.3977      5.3699      5.3287      5.2724      5.2000      5.1116      5.0082      4.8913      4.7626    
  4.6243      4.4790      4.3302      4.1813      4.0360      3.8979      3.7703      3.6558      3.5567      3.4745    
  3.4100      3.3638      3.3361      3.3268      3.3361      3.3638      3.4100      3.4745      3.5567      3.6558    
  3.7703      3.8979      4.0360      4.1813      4.3302      4.4790      4.6243      4.7626      5.1443      5.2643    
  5.3652      5.4459      5.5070      5.5507      5.5798      5.5971      5.6051      5.6051      5.5971      5.5798    
  5.5507      5.5070      5.4459      5.3652      5.2643      5.1443      5.0082      4.8591      4.6999      4.5338    
  4.3647      4.1968      4.0344      3.8816      3.7419      3.6184      3.5133      3.4282      3.3638      3.3208    
  3.2993      3.2993      3.3208      3.3638      3.4282      3.5133      3.6184      3.7419      3.8816      4.0344    
  4.1968      4.3647      4.5338      4.6999      4.8591      5.0082      5.3963      5.5041      5.5869      5.6459    
  5.6848      5.7079      5.7200      5.7254      5.7268      5.7254      5.7200      5.7079      5.6848      5.6459    
  5.5869      5.5041      5.3963      5.2643      5.1116      4.9438      4.7655      4.5806      4.3936      4.2094    
  4.0328      3.8683      3.7197      3.5903      3.4823      3.3972      3.3361      3.2993      3.2870      3.2993    
  3.3361      3.3972      3.4823      3.5903      3.7197      3.8683      4.0328      4.2094      4.3936      4.5806    
  4.7655      4.9438      5.1116      5.2643      5.6128      5.6904      5.7392      5.7640      5.7716      5.7689    
  5.7628      5.7583      5.7583      5.7628      5.7689      5.7716      5.7640      5.7392      5.6904      5.6128    
  5.5041      5.3652      5.2000      5.0159      4.8205      4.6191      4.4169      4.2192      4.0313      3.8581    
  3.7038      3.5715      3.4636      3.3818      3.3268      3.2993      3.2993      3.3268      3.3818      3.4636    
  3.5715      3.7038      3.8581      4.0313      4.2192      4.4169      4.6191      4.8205      5.0159      5.2000    
  5.3652      5.5041      5.7555      5.7852      5.7859      5.7665      5.7372      5.7076      5.6862      5.6785    
  5.6862      5.7076      5.7372      5.7665      5.7859      5.7852      5.7555      5.6904      5.5869      5.4459    
  5.2724      5.0751      4.8650      4.6495      4.4347      4.2263      4.0301      3.8513      3.6942      3.5621    
  3.4574      3.3818      3.3361      3.3208      3.3361      3.3818      3.4574      3.5621      3.6942      3.8513    
  4.0301      4.2263      4.4347      4.6495      4.8650      5.0751      5.2724      5.4459      5.5869      5.6904    
  5.7874      5.7538      5.6954      5.6258      5.5586      5.5059      5.4771      5.4771      5.5059      5.5586    
  5.6258      5.6954      5.7538      5.7874      5.7852      5.7392      5.6459      5.5070      5.3287      5.1214    
  4.8989      4.6719      4.4471      4.2308      4.0293      3.8478      3.6910      3.5621      3.4636      3.3972    
  3.3638      3.3638      3.3972      3.4636      3.5621      3.6910      3.8478      4.0293      4.2308      4.4471    
  4.6719      4.8989      5.1214      5.3287      5.5070      5.6459      5.7392      5.7852      5.6765      5.5677    
  5.4440      5.3233      5.2228      5.1563      5.1330      5.1563      5.2228      5.3233      5.4440      5.5677    
  5.6765      5.7538      5.7859      5.7640      5.6848      5.5507      5.3699      5.1552      4.9228      4.6866    
  4.4544      4.2331      4.0290      3.8478      3.6942      3.5715      3.4823      3.4282      3.4100      3.4282    
  3.4823      3.5715      3.6942      3.8478      4.0290      4.2331      4.4544      4.6866      4.9228      5.1552    
  5.3699      5.5507      5.6848      5.7640      5.7859      5.7538      5.3986      5.2081      5.0186      4.8524    
  4.7292      4.6637      4.6637      4.7292      4.8524      5.0186      5.2081      5.3986      5.5677      5.6954    
  5.7665      5.7716      5.7079      5.5798      5.3977      5.1771      4.9369      4.6939      4.4568      4.2331    
  4.0293      3.8513      3.7038      3.5903      3.5133      3.4745      3.4745      3.5133      3.5903      3.7038    
  3.8513      4.0293      4.2331      4.4568      4.6939      4.9369      5.1771      5.3977      5.5798      5.7079    
  5.7716      5.7665      5.6954      5.5677      4.9409      4.6689      4.4201      4.2206      4.0916      4.0469    
  4.0916      4.2206      4.4201      4.6689      4.9409      5.2081      5.4440      5.6258      5.7372      5.7689    
  5.7200      5.5971      5.4136      5.1879      4.9416      4.6939      4.4544      4.2308      4.0301      3.8581    
  3.7197      3.6184      3.5567      3.5360      3.5567      3.6184      3.7197      3.8581      4.0301      4.2308    
  4.4544      4.6939      4.9416      5.1879      5.4136      5.5971      5.7200      5.7689      5.7372      5.6258    
  5.4440      5.2081      4.3046      3.9590      3.6649      3.4509      3.3383      3.3383      3.4509      3.6649    
  3.9590      4.3046      4.6689      5.0186      5.3233      5.5586      5.7076      5.7628      5.7254      5.6051    
  5.4187      5.1879      4.9369      4.6866      4.4471      4.2263      4.0313      3.8683      3.7419      3.6558    
  3.6122      3.6122      3.6558      3.7419      3.8683      4.0313      4.2263      4.4471      4.6866      4.9369    
  5.1879      5.4187      5.6051      5.7254      5.7628      5.7076      5.5586      5.3233      5.0186      4.6689    
  3.5072      3.1039      2.7856      2.5818      2.5116      2.5818      2.7856      3.1039      3.5072      3.9590    
  4.4201      4.8524      5.2228      5.5059      5.6862      5.7583      5.7268      5.6051      5.4136      5.1771    
  4.9228      4.6719      4.4347      4.2192      4.0328      3.8816      3.7703      3.7022      3.6793      3.7022    
  3.7703      3.8816      4.0328      4.2192      4.4347      4.6719      4.9228      5.1771      5.4136      5.6051    
  5.7268      5.7583      5.6862      5.5059      5.2228      4.8524      4.4201      3.9590      2.5827      2.1454    
  1.8301      1.6650      1.6650      1.8301      2.1454      2.5827      3.1039      3.6649      4.2206      4.7292    
  5.1563      5.4771      5.6785      5.7583      5.7254      5.5971      5.3977      5.1552      4.8989      4.6495    
  4.4169      4.2094      4.0344      3.8979      3.8044      3.7569      3.7569      3.8044      3.8979      4.0344    
  4.2094      4.4169      4.6495      4.8989      5.1552      5.3977      5.5971      5.7254      5.7583      5.6785    
  5.4771      5.1563      4.7292      4.2206      3.6649      3.1039      1.5812      1.1397     0.85845     0.76191    
 0.85845      1.1397      1.5812      2.1454      2.7856      3.4509      4.0916      4.6637      5.1330      5.4771    
  5.6862      5.7628      5.7200      5.5798      5.3699      5.1214      4.8650      4.6191      4.3936      4.1968    
  4.0360      3.9170      3.8439      3.8193      3.8439      3.9170      4.0360      4.1968      4.3936      4.6191    
  4.8650      5.1214      5.3699      5.5798      5.7200      5.7628      5.6862      5.4771      5.1330      4.6637    
  4.0916      3.4509      2.7856      2.1454     0.56487     0.15270     -.62468E-01 -.62468E-01 0.15270     0.56487    
  1.1397      1.8301      2.5818      3.3383      4.0469      4.6637      5.1563      5.5059      5.7076      5.7689    
  5.7079      5.5507      5.3287      5.0751      4.8205      4.5806      4.3647      4.1813      4.0374      3.9385    
  3.8881      3.8881      3.9385      4.0374      4.1813      4.3647      4.5806      4.8205      5.0751      5.3287    
  5.5507      5.7079      5.7689      5.7076      5.5059      5.1563      4.6637      4.0469      3.3383      2.5818    
  1.8301      1.1397     -.39675     -.74553     -.86508     -.74553     -.39675     0.15270     0.85845      1.6650    
  2.5116      3.3383      4.0916      4.7292      5.2228      5.5586      5.7372      5.7716      5.6848      5.5070    
  5.2724      5.0159      4.7655      4.5338      4.3302      4.1629      4.0386      3.9621      3.9362      3.9621    
  4.0386      4.1629      4.3302      4.5338      4.7655      5.0159      5.2724      5.5070      5.6848      5.7716    
  5.7372      5.5586      5.2228      4.7292      4.0916      3.3383      2.5116      1.6650     0.85845     0.15270    
 -1.2337     -1.4881     -1.4881     -1.2337     -.74553     -.62468E-01 0.76191      1.6650      2.5818      3.4509    
  4.2206      4.8524      5.3233      5.6258      5.7665      5.7640      5.6459      5.4459      5.2000      4.9438    
  4.6999      4.4790      4.2905      4.1419      4.0395      3.9873      3.9873      4.0395      4.1419      4.2905    
  4.4790      4.6999      4.9438      5.2000      5.4459      5.6459      5.7640      5.7665      5.6258      5.3233    
  4.8524      4.2206      3.4509      2.5818      1.6650     0.76191     -.62468E-01 -.74553     -1.8829     -2.0180    
 -1.8829     -1.4881     -.86508     -.62468E-01 0.85845      1.8301      2.7856      3.6649      4.4201      5.0186    
  5.4440      5.6954      5.7859      5.7392      5.5869      5.3652      5.1116      4.8591      4.6243      4.4170    
  4.2461      4.1187      4.0402      4.0136      4.0402      4.1187      4.2461      4.4170      4.6243      4.8591    
  5.1116      5.3652      5.5869      5.7392      5.7859      5.6954      5.4440      5.0186      4.4201      3.6649    
  2.7856      1.8301     0.85845     -.62468E-01 -.86508     -1.4881     -2.2939     -2.2939     -2.0180     -1.4881    
 -.74553     0.15270      1.1397      2.1454      3.1039      3.9590      4.6689      5.2081      5.5677      5.7538    
  5.7852      5.6904      5.5041      5.2643      5.0082      4.7626      4.5396      4.3486      4.1978      4.0937    
  4.0405      4.0405      4.0937      4.1978      4.3486      4.5396      4.7626      5.0082      5.2643      5.5041    
  5.6904      5.7852      5.7538      5.5677      5.2081      4.6689      3.9590      3.1039      2.1454      1.1397    
 0.15270     -.74553     -1.4881     -2.0180     -2.2939     -2.0180     -1.4881     -.74553     0.15270      1.1397    
  2.1454      3.1039      3.9590      4.6689      5.2081      5.5677      5.7538      5.7852      5.6904      5.5041    
  5.2643      5.0082      4.7626      4.5396      4.3486      4.1978      4.0937      4.0405      4.0405      4.0937    
  4.1978      4.3486      4.5396      4.7626      5.0082      5.2643      5.5041      5.6904      5.7852      5.7538    
  5.5677      5.2081      4.6689      3.9590      3.1039      2.1454      1.1397     0.15270     -.74553     -1.4881    
 -2.0180     -2.2939     -2.0180     -1.6176     -.98540     -.17083     0.76414      1.7511      2.7222      3.6167    
  4.3860      4.9970      5.4331      5.6932      5.7903      5.7483      5.5991      5.3790      5.1258      4.8732    
  4.6380      4.4302      4.2589      4.1312      4.0524      4.0258      4.0524      4.1312      4.2589      4.4302    
  4.6380      4.8732      5.1258      5.3790      5.5991      5.7483      5.7903      5.6932      5.4331      4.9970    
  4.3860      3.6167      2.7222      1.7511     0.76414     -.17083     -.98540     -1.6176     -2.0180     -2.1552    
 -1.4881     -.98540     -.28177     0.56794      1.4996      2.4464      3.3454      4.1434      4.8009      5.2941    
  5.6151      5.7705      5.7788      5.6680      5.4722      5.2281      4.9717      4.7271      4.5055      4.3160    
  4.1667      4.0636      4.0110      4.0110      4.0636      4.1667      4.3160      4.5055      4.7271      4.9717    
  5.2281      5.4722      5.6680      5.7788      5.7705      5.6151      5.2941      4.8009      4.1434      3.3454    
  2.4464      1.4996     0.56794     -.28177     -.98540     -1.4881     -1.7500     -1.7500     -.74553     -.17083    