DFT Virtual Orbitals Calculation        
   3.90000000000000     
     0.500000    0.500000    0.000000
     0.000000    0.500000    0.500000
     0.500000    0.000000    0.500000
   Si
     1
Direct
  0.000000  0.000000  0.000000
 
   48   48   48
 -.24345605441E+01 -.22938671125E+01 -.18828651023E+01 -.12337499626E+01 -.39674588634E+00
 0.56487030238E+00 0.15811907520E+01 0.25827477536E+01 0.35071998080E+01 0.43046405025E+01
 0.49408830738E+01 0.53985795315E+01 0.56764859661E+01 0.57874226991E+01 0.57554717059E+01
 0.56127971556E+01 0.53963043525E+01 0.51442633419E+01 0.48913425167E+01 0.46555291974E+01
 0.44470806753E+01 0.42749983872E+01 0.41466426575E+01 0.40674291862E+01 0.40406561384E+01
 0.40674291862E+01 0.41466426575E+01 0.42749983872E+01 0.44470806753E+01 0.46555291974E+01
 0.48913425167E+01 0.51442633419E+01 0.53963043525E+01 0.56127971556E+01 0.57554717059E+01
 0.57874226991E+01 0.56764859661E+01 0.53985795315E+01 0.49408830738E+01 0.43046405025E+01
 0.35071998080E+01 0.25827477536E+01 0.15811907520E+01 0.56487030238E+00 -.39674588634E+00
 -.12337499626E+01 -.18828651023E+01 -.22938671125E+01 -.22938671125E+01 -.20180372356E+01
 -.14881202898E+01 -.74553149822E+00 0.15269741399E+00 0.11396664511E+01 0.21454245935E+01
 0.31039201789E+01 0.39590441290E+01 0.46689287510E+01 0.52081107378E+01 0.55676631916E+01
 0.57537516684E+01 0.57851768257E+01 0.56903698848E+01 0.55041315064E+01 0.52642720571E+01
 0.50081756783E+01 0.47626415694E+01 0.45395650440E+01 0.43485629357E+01 0.41978127913E+01
 0.40936891814E+01 0.40405321546E+01 0.40405321578E+01 0.40936891894E+01 0.41978127998E+01
 0.43485629396E+01 0.45395650395E+01 0.47626415555E+01 0.50081756573E+01 0.52642720335E+01
 0.55041314849E+01 0.56903698689E+01 0.57851768157E+01 0.57537516624E+01 0.55676631858E+01
 0.52081107294E+01 0.46689287395E+01 0.39590441173E+01 0.31039201721E+01 0.21454245973E+01
 0.11396664689E+01 0.15269744525E+00 -.74553145883E+00 -.14881202510E+01 -.20180372073E+01
 -.22938671021E+01 -.18828651023E+01 -.14881202898E+01 -.86508090572E+00 -.62467662256E-01
 0.85845469168E+00 0.18301436489E+01 0.27856241229E+01 0.36649201550E+01 0.44201397117E+01
 0.50186150493E+01 0.54439755549E+01 0.56954498277E+01 0.57859099391E+01 0.57391626433E+01
 0.55868504414E+01 0.53651714933E+01 0.51115518038E+01 0.48591403006E+01 0.46242799649E+01
 0.44169940842E+01 0.42460800038E+01 0.41187114641E+01 0.40401547288E+01 0.40136116652E+01
 0.40401547384E+01 0.41187114784E+01 0.42460800150E+01 0.44169940849E+01 0.46242799512E+01
 0.48591402737E+01 0.51115517692E+01 0.53651714588E+01 0.55868504136E+01 0.57391626248E+01
 0.57859099280E+01 0.56954498185E+01 0.54439755418E+01 0.50186150295E+01 0.44201396874E+01
 0.36649201333E+01 0.27856241136E+01 0.18301436604E+01 0.85845472710E+00 -.62467607550E-01
 -.86508084345E+00 -.14881202355E+01 -.18828650708E+01 -.20180372073E+01 -.12337499626E+01
 -.74553149822E+00 -.62467662256E-01 0.76190855769E+00 0.16650447232E+01 0.25818013416E+01
 0.34509213531E+01 0.42205992024E+01 0.48524201726E+01 0.53233437706E+01 0.56258352914E+01
 0.57665476434E+01 0.57640412969E+01 0.56459492831E+01 0.54458512943E+01 0.52000178882E+01
 0.49437855881E+01 0.46998842706E+01 0.44790409066E+01 0.42904650189E+01 0.41419424876E+01
 0.40395110977E+01 0.39872649199E+01 0.39872649253E+01 0.40395111113E+01 0.41419425026E+01
 0.42904650273E+01 0.44790409025E+01 0.46998842525E+01 0.49437855598E+01 0.52000178567E+01
 0.54458512668E+01 0.56459492639E+01 0.57640412854E+01 0.57665476348E+01 0.56258352788E+01
 0.53233437487E+01 0.48524201411E+01 0.42205991669E+01 0.34509213237E+01 0.25818013292E+01
 0.16650447352E+01 0.76190859423E+00 -.62467609110E-01 -.74553144272E+00 -.12337499209E+01
 -.14881202355E+01 -.14881202510E+01 -.39674588634E+00 0.15269741399E+00 0.85845469168E+00
 0.16650447232E+01 0.25116414885E+01 0.33382758341E+01 0.40915697168E+01 0.47292233872E+01
 0.52227789837E+01 0.55585784994E+01 0.57371679803E+01 0.57715641521E+01 0.56847937811E+01
 0.55070081721E+01 0.52723698684E+01 0.50158570209E+01 0.47654633571E+01 0.45337637487E+01
 0.43301795046E+01 0.41629119144E+01 0.40385913191E+01 0.39620500120E+01 0.39362107982E+01
 0.39620500205E+01 0.40385913325E+01 0.41629119268E+01 0.43301795104E+01 0.45337637450E+01
 0.47654633447E+01 0.50158570037E+01 0.52723698517E+01 0.55070081599E+01 0.56847937741E+01
 0.57715641473E+01 0.57371679722E+01 0.55585784825E+01 0.52227789553E+01 0.47292233491E+01
 0.40915696755E+01 0.33382757986E+01 0.25116414672E+01 0.16650447209E+01 0.85845470690E+00
 0.15269743981E+00 -.39674586032E+00 -.74553144272E+00 -.86508084345E+00 -.74553145883E+00
 0.56487030238E+00 0.11396664511E+01 0.18301436489E+01 0.25818013416E+01 0.33382758341E+01
 0.40469492047E+01 0.46637063633E+01 0.51562784006E+01 0.55059383919E+01 0.57076420873E+01
 0.57689202196E+01 0.57078908111E+01 0.55507051970E+01 0.53286521786E+01 0.50750924276E+01
 0.48205245739E+01 0.45805584459E+01 0.43646629347E+01 0.41812653846E+01 0.40374022890E+01
 0.39384700147E+01 0.38880959309E+01 0.38880959341E+01 0.39384700232E+01 0.40374023001E+01
 0.41812653949E+01 0.43646629415E+01 0.45805584479E+01 0.48205245718E+01 0.50750924233E+01
 0.53286521742E+01 0.55507051936E+01 0.57078908081E+01 0.57689202148E+01 0.57076420774E+01
 0.55059383741E+01 0.51562783736E+01 0.46637063284E+01 0.40469491651E+01 0.33382757945E+01
 0.25818013064E+01 0.18301436213E+01 0.11396664321E+01 0.56487029118E+00 0.15269743981E+00
 -.62467609110E-01 -.62467607550E-01 0.15269744525E+00 0.15811907520E+01 0.21454245935E+01
 0.27856241229E+01 0.34509213531E+01 0.40915697168E+01 0.46637063633E+01 0.51330424193E+01
 0.54771423856E+01 0.56862438616E+01 0.57627984112E+01 0.57200254679E+01 0.55797705016E+01
 0.53699026023E+01 0.51214387438E+01 0.48649518924E+01 0.46191477003E+01 0.43935976931E+01
 0.41967872774E+01 0.40359817667E+01 0.39169636806E+01 0.38438921674E+01 0.38192589429E+01
 0.38438921702E+01 0.39169636860E+01 0.40359817741E+01 0.41967872859E+01 0.43935977011E+01
 0.46191477064E+01 0.48649518951E+01 0.51214387423E+01 0.53699025967E+01 0.55797704929E+01
 0.57200254575E+01 0.57627984005E+01 0.56862438509E+01 0.54771423740E+01 0.51330424047E+01
 0.46637063426E+01 0.40915696875E+01 0.34509213143E+01 0.27856240762E+01 0.21454245433E+01
 0.15811907049E+01 0.11396664321E+01 0.85845470690E+00 0.76190859423E+00 0.85845472710E+00
 0.11396664689E+01 0.25827477536E+01 0.31039201789E+01 0.36649201550E+01 0.42205992024E+01
 0.47292233872E+01 0.51562784006E+01 0.54771423856E+01 0.56784693496E+01 0.57583419057E+01
 0.57253911757E+01 0.55971243558E+01 0.53976822026E+01 0.51552185785E+01 0.48989195341E+01
 0.46495350898E+01 0.44168955598E+01 0.42094066571E+01 0.40344078344E+01 0.38979019737E+01
 0.38044080587E+01 0.37569190829E+01 0.37569190816E+01 0.38044080559E+01 0.38979019715E+01
 0.40344078350E+01 0.42094066611E+01 0.44168955656E+01 0.46495350938E+01 0.48989195320E+01
 0.51552185675E+01 0.53976821827E+01 0.55971243305E+01 0.57253911508E+01 0.57583418874E+01
 0.56784693416E+01 0.54771423872E+01 0.51562784066E+01 0.47292233890E+01 0.42205991916E+01
 0.36649201264E+01 0.31039201331E+01 0.25827476978E+01 0.21454245433E+01 0.18301436213E+01
 0.16650447209E+01 0.16650447352E+01 0.18301436604E+01 0.21454245973E+01 0.35071998080E+01
 0.39590441290E+01 0.44201397117E+01 0.48524201726E+01 0.52227789837E+01 0.55059383919E+01
 0.56862438616E+01 0.57583419057E+01 0.57268426964E+01 0.56051393356E+01 0.54135724333E+01
 0.51771216142E+01 0.49227722245E+01 0.46719235634E+01 0.44346530111E+01 0.42191817274E+01
 0.40327996707E+01 0.38815892335E+01 0.37702735126E+01 0.37021781315E+01 0.36792642268E+01
 0.37021781224E+01 0.37702734982E+01 0.38815892195E+01 0.40327996618E+01 0.42191817250E+01
 0.44346530121E+01 0.46719235613E+01 0.49227722125E+01 0.51771215884E+01 0.54135723949E+01
 0.56051392916E+01 0.57268426573E+01 0.57583418818E+01 0.56862438585E+01 0.55059384084E+01
 0.52227790115E+01 0.48524201992E+01 0.44201397250E+01 0.39590441216E+01 0.35071997806E+01
 0.31039201331E+01 0.27856240762E+01 0.25818013064E+01 0.25116414672E+01 0.25818013292E+01
 0.27856241136E+01 0.31039201721E+01 0.43046405025E+01 0.46689287510E+01 0.50186150493E+01
 0.53233437706E+01 0.55585784994E+01 0.57076420873E+01 0.57627984112E+01 0.57253911757E+01
 0.56051393356E+01 0.54187286265E+01 0.51878555557E+01 0.49368895514E+01 0.46866091736E+01
 0.44470797785E+01 0.42262625796E+01 0.40313073210E+01 0.38682674007E+01 0.37419423977E+01
 0.36558428265E+01 0.36122390534E+01 0.36122390453E+01 0.36558428053E+01 0.37419423709E+01
 0.38682673768E+01 0.40313073062E+01 0.42262625744E+01 0.44470797776E+01 0.46866091682E+01
 0.49368895329E+01 0.51878555200E+01 0.54187285763E+01 0.56051392802E+01 0.57253911282E+01
 0.57627983836E+01 0.57076420863E+01 0.55585785239E+01 0.53233438121E+01 0.50186150948E+01
 0.46689287882E+01 0.43046405237E+01 0.39590441216E+01 0.36649201264E+01 0.34509213143E+01
 0.33382757945E+01 0.33382757986E+01 0.34509213237E+01 0.36649201333E+01 0.39590441173E+01
 0.49408830738E+01 0.52081107378E+01 0.54439755549E+01 0.56258352914E+01 0.57371679803E+01
 0.57689202196E+01 0.57200254679E+01 0.55971243558E+01 0.54135724333E+01 0.51878555557E+01
 0.49415596895E+01 0.46938693181E+01 0.44544129479E+01 0.42308378348E+01 0.40300910914E+01
 0.38581216038E+01 0.37197120318E+01 0.36184418559E+01 0.35567485318E+01 0.35360324529E+01
 0.35567485152E+01 0.36184418283E+01 0.37197120020E+01 0.38581215806E+01 0.40300910795E+01
 0.42308378333E+01 0.44544129505E+01 0.46938693156E+01 0.49415596735E+01 0.51878555223E+01
 0.54135723851E+01 0.55971243014E+01 0.57200254190E+01 0.57689201877E+01 0.57371679729E+01
 0.56258353099E+01 0.54439755946E+01 0.52081107900E+01 0.49408831284E+01 0.46689287882E+01
 0.44201397250E+01 0.42205991916E+01 0.40915696875E+01 0.40469491651E+01 0.40915696755E+01
 0.42205991669E+01 0.44201396874E+01 0.46689287395E+01 0.53985795315E+01 0.55676631916E+01
 0.56954498277E+01 0.57665476434E+01 0.57715641521E+01 0.57078908111E+01 0.55797705016E+01
 0.53976822026E+01 0.51771216142E+01 0.49368895514E+01 0.46938693181E+01 0.44568346939E+01
 0.42330761193E+01 0.40292944769E+01 0.38512856270E+01 0.37037553041E+01 0.35902725948E+01
 0.35133356362E+01 0.34744983107E+01 0.34744983054E+01 0.35133356222E+01 0.35902725764E+01
 0.37037552868E+01 0.38512856158E+01 0.40292944743E+01 0.42330761243E+01 0.44568347023E+01
 0.46938693237E+01 0.49368895478E+01 0.51771215970E+01 0.53976821711E+01 0.55797704593E+01
 0.57078907652E+01 0.57715641122E+01 0.57665476188E+01 0.56954498253E+01 0.55676632143E+01
 0.53985795767E+01 0.52081107900E+01 0.50186150948E+01 0.48524201992E+01 0.47292233890E+01
 0.46637063426E+01 0.46637063284E+01 0.47292233491E+01 0.48524201411E+01 0.50186150295E+01
 0.52081107294E+01 0.56764859661E+01 0.57537516684E+01 0.57859099391E+01 0.57640412969E+01
 0.56847937811E+01 0.55507051970E+01 0.53699026023E+01 0.51552185785E+01 0.49227722245E+01
 0.46866091736E+01 0.44544129479E+01 0.42330761193E+01 0.40290170558E+01 0.38478462815E+01
 0.36941585189E+01 0.35714672459E+01 0.34822639704E+01 0.34281566106E+01 0.34100277944E+01
 0.34281566135E+01 0.34822639750E+01 0.35714672503E+01 0.36941585221E+01 0.38478462838E+01
 0.40290170592E+01 0.42330761265E+01 0.44544129602E+01 0.46866091896E+01 0.49227722397E+01
 0.51552185861E+01 0.53699025954E+01 0.55507051719E+01 0.56847937394E+01 0.57640412464E+01
 0.57859098924E+01 0.57537516391E+01 0.56764859642E+01 0.55676632143E+01 0.54439755946E+01
 0.53233438121E+01 0.52227790115E+01 0.51562784066E+01 0.51330424047E+01 0.51562783736E+01
 0.52227789553E+01 0.53233437487E+01 0.54439755418E+01 0.55676631858E+01 0.57874226991E+01
 0.57851768257E+01 0.57391626433E+01 0.56459492831E+01 0.55070081721E+01 0.53286521786E+01
 0.51214387438E+01 0.48989195341E+01 0.46719235634E+01 0.44470797785E+01 0.42308378348E+01
 0.40292944769E+01 0.38478462815E+01 0.36909566979E+01 0.35620635048E+01 0.34636193628E+01
 0.33972283215E+01 0.33638228809E+01 0.33638228893E+01 0.33972283437E+01 0.34636193909E+01
 0.35620635299E+01 0.36909567135E+01 0.38478462868E+01 0.40292944768E+01 0.42308378374E+01
 0.44470797910E+01 0.46719235883E+01 0.48989195669E+01 0.51214387742E+01 0.53286521940E+01
 0.55070081631E+01 0.56459492474E+01 0.57391625881E+01 0.57851767653E+01 0.57874226506E+01
 0.57537516391E+01 0.56954498253E+01 0.56258353099E+01 0.55585785239E+01 0.55059384084E+01
 0.54771423872E+01 0.54771423740E+01 0.55059383741E+01 0.55585784825E+01 0.56258352788E+01
 0.56954498185E+01 0.57537516624E+01 0.57554717059E+01 0.56903698848E+01 0.55868504414E+01
 0.54458512943E+01 0.52723698684E+01 0.50750924276E+01 0.48649518924E+01 0.46495350898E+01
 0.44346530111E+01 0.42262625796E+01 0.40300910914E+01 0.38512856270E+01 0.36941585189E+01
 0.35620635048E+01 0.34574067354E+01 0.33817665418E+01 0.33360739156E+01 0.33207965657E+01
 0.33360739369E+01 0.33817665769E+01 0.34574067724E+01 0.35620635321E+01 0.36941585302E+01
 0.38512856235E+01 0.40300910811E+01 0.42262625739E+01 0.44346530196E+01 0.46495351159E+01
 0.48649519313E+01 0.50750924682E+01 0.52723698968E+01 0.54458512997E+01 0.55868504199E+01
 0.56903698413E+01 0.57554716520E+01 0.57851767653E+01 0.57859098924E+01 0.57665476188E+01
 0.57371679729E+01 0.57076420863E+01 0.56862438585E+01 0.56784693416E+01 0.56862438509E+01
 0.57076420774E+01 0.57371679722E+01 0.57665476348E+01 0.57859099280E+01 0.57851768157E+01
 0.56127971556E+01 0.55041315064E+01 0.53651714933E+01 0.52000178882E+01 0.50158570209E+01
 0.48205245739E+01 0.46191477003E+01 0.44168955598E+01 0.42191817274E+01 0.40313073210E+01
 0.38581216038E+01 0.37037553041E+01 0.35714672459E+01 0.34636193628E+01 0.33817665418E+01
 0.33268237701E+01 0.32992590857E+01 0.32992590936E+01 0.33268237908E+01 0.33817665680E+01
 0.34636193853E+01 0.35714672572E+01 0.37037553011E+01 0.38581215891E+01 0.40313073017E+01
 0.42191817128E+01 0.44168955576E+01 0.46191477142E+01 0.48205246020E+01 0.50158570564E+01
 0.52000179217E+01 0.53651715159E+01 0.55041315122E+01 0.56127971432E+01 0.56903698413E+01
 0.57391625881E+01 0.57640412464E+01 0.57715641122E+01 0.57689201877E+01 0.57627983836E+01
 0.57583418818E+01 0.57583418874E+01 0.57627984005E+01 0.57689202148E+01 0.57715641473E+01
 0.57640412854E+01 0.57391626248E+01 0.56903698689E+01 0.53963043525E+01 0.52642720571E+01
 0.51115518038E+01 0.49437855881E+01 0.47654633571E+01 0.45805584459E+01 0.43935976931E+01
 0.42094066571E+01 0.40327996707E+01 0.38682674007E+01 0.37197120318E+01 0.35902725948E+01
 0.34822639704E+01 0.33972283215E+01 0.33360739156E+01 0.32992590857E+01 0.32869718097E+01
 0.32992590858E+01 0.33360739155E+01 0.33972283205E+01 0.34822639673E+01 0.35902725879E+01
 0.37197120194E+01 0.38682673822E+01 0.40327996474E+01 0.42094066324E+01 0.43935976724E+01
 0.45805584355E+01 0.47654633621E+01 0.49437856102E+01 0.51115518402E+01 0.52642721008E+01
 0.53963043931E+01 0.55041315122E+01 0.55868504199E+01 0.56459492474E+01 0.56847937394E+01
 0.57078907652E+01 0.57200254190E+01 0.57253911282E+01 0.57268426573E+01 0.57253911508E+01
 0.57200254575E+01 0.57078908081E+01 0.56847937741E+01 0.56459492639E+01 0.55868504136E+01
 0.55041314849E+01 0.51442633419E+01 0.50081756783E+01 0.48591403006E+01 0.46998842706E+01
 0.45337637487E+01 0.43646629347E+01 0.41967872774E+01 0.40344078344E+01 0.38815892335E+01
 0.37419423977E+01 0.36184418559E+01 0.35133356362E+01 0.34281566106E+01 0.33638228809E+01
 0.33207965657E+01 0.32992590936E+01 0.32992590858E+01 0.33207965451E+01 0.33638228542E+01
 0.34281565855E+01 0.35133356180E+01 0.36184418448E+01 0.37419423891E+01 0.38815892201E+01
 0.40344078104E+01 0.41967872417E+01 0.43646628931E+01 0.45337637123E+01 0.46998842522E+01
 0.48591403098E+01 0.50081757167E+01 0.51442634021E+01 0.52642721008E+01 0.53651715159E+01
 0.54458512997E+01 0.55070081631E+01 0.55507051719E+01 0.55797704593E+01 0.55971243014E+01
 0.56051392802E+01 0.56051392916E+01 0.55971243305E+01 0.55797704929E+01 0.55507051936E+01
 0.55070081599E+01 0.54458512668E+01 0.53651714588E+01 0.52642720335E+01 0.48913425167E+01
 0.47626415694E+01 0.46242799649E+01 0.44790409066E+01 0.43301795046E+01 0.41812653846E+01
 0.40359817667E+01 0.38979019737E+01 0.37702735126E+01 0.36558428265E+01 0.35567485318E+01
 0.34744983107E+01 0.34100277944E+01 0.33638228893E+01 0.33360739369E+01 0.33268237908E+01
 0.33360739155E+01 0.33638228542E+01 0.34100277577E+01 0.34744982836E+01 0.35567485199E+01
 0.36558428274E+01 0.37702735168E+01 0.38979019691E+01 0.40359817440E+01 0.41812653422E+01
 0.43301794500E+01 0.44790408546E+01 0.46242799319E+01 0.47626415676E+01 0.48913425492E+01
 0.50081757167E+01 0.51115518402E+01 0.52000179217E+01 0.52723698968E+01 0.53286521940E+01
 0.53699025954E+01 0.53976821711E+01 0.54135723851E+01 0.54187285763E+01 0.54135723949E+01
 0.53976821827E+01 0.53699025967E+01 0.53286521742E+01 0.52723698517E+01 0.52000178567E+01
 0.51115517692E+01 0.50081756573E+01 0.46555291974E+01 0.45395650440E+01 0.44169940842E+01
 0.42904650189E+01 0.41629119144E+01 0.40374022890E+01 0.39169636806E+01 0.38044080587E+01
 0.37021781315E+01 0.36122390534E+01 0.35360324529E+01 0.34744983054E+01 0.34281566135E+01
 0.33972283437E+01 0.33817665769E+01 0.33817665680E+01 0.33972283205E+01 0.34281565855E+01
 0.34744982836E+01 0.35360324453E+01 0.36122390618E+01 0.37021781503E+01 0.38044080767E+01
 0.39169636858E+01 0.40374022732E+01 0.41629118769E+01 0.42904649669E+01 0.44169940309E+01
 0.45395650039E+01 0.46555291814E+01 0.47626415676E+01 0.48591403098E+01 0.49437856102E+01
 0.50158570564E+01 0.50750924682E+01 0.51214387742E+01 0.51552185861E+01 0.51771215970E+01
 0.51878555223E+01 0.51878555200E+01 0.51771215884E+01 0.51552185675E+01 0.51214387423E+01
 0.50750924233E+01 0.50158570037E+01 0.49437855598E+01 0.48591402737E+01 0.47626415555E+01
 0.44470806753E+01 0.43485629357E+01 0.42460800038E+01 0.41419424876E+01 0.40385913191E+01
 0.39384700147E+01 0.38438921674E+01 0.37569190829E+01 0.36792642268E+01 0.36122390453E+01
 0.35567485152E+01 0.35133356222E+01 0.34822639750E+01 0.34636193909E+01 0.34574067724E+01
 0.34636193853E+01 0.34822639673E+01 0.35133356180E+01 0.35567485199E+01 0.36122390618E+01
 0.36792642538E+01 0.37569191148E+01 0.38438921962E+01 0.39384700318E+01 0.40385913185E+01
 0.41419424673E+01 0.42460799671E+01 0.43485628900E+01 0.44470806301E+01 0.45395650039E+01
 0.46242799319E+01 0.46998842522E+01 0.47654633621E+01 0.48205246020E+01 0.48649519313E+01
 0.48989195669E+01 0.49227722397E+01 0.49368895478E+01 0.49415596735E+01 0.49368895329E+01
 0.49227722125E+01 0.48989195320E+01 0.48649518951E+01 0.48205245718E+01 0.47654633447E+01
 0.46998842525E+01 0.46242799512E+01 0.45395650395E+01 0.42749983872E+01 0.41978127913E+01
 0.41187114641E+01 0.40395110977E+01 0.39620500120E+01 0.38880959309E+01 0.38192589429E+01
 0.37569190816E+01 0.37021781224E+01 0.36558428053E+01 0.36184418283E+01 0.35902725764E+01
 0.35714672503E+01 0.35620635299E+01 0.35620635321E+01 0.35714672572E+01 0.35902725879E+01
 0.36184418448E+01 0.36558428274E+01 0.37021781503E+01 0.37569191148E+01 0.38192589796E+01
 0.38880959675E+01 0.39620500430E+01 0.40395111171E+01 0.41187114665E+01 0.41978127739E+01
 0.42749983510E+01 0.43485628900E+01 0.44169940309E+01 0.44790408546E+01 0.45337637123E+01
 0.45805584355E+01 0.46191477142E+01 0.46495351159E+01 0.46719235883E+01 0.46866091896E+01
 0.46938693237E+01 0.46938693156E+01 0.46866091682E+01 0.46719235613E+01 0.46495350938E+01
 0.46191477064E+01 0.45805584479E+01 0.45337637450E+01 0.44790409025E+01 0.44169940849E+01
 0.43485629396E+01 0.41466426575E+01 0.40936891814E+01 0.40401547288E+01 0.39872649199E+01
 0.39362107982E+01 0.38880959341E+01 0.38438921702E+01 0.38044080559E+01 0.37702734982E+01
 0.37419423709E+01 0.37197120020E+01 0.37037552868E+01 0.36941585221E+01 0.36909567135E+01
 0.36941585302E+01 0.37037553011E+01 0.37197120194E+01 0.37419423891E+01 0.37702735168E+01
 0.38044080767E+01 0.38438921962E+01 0.38880959675E+01 0.39362108383E+01 0.39872649624E+01
 0.40401547657E+01 0.40936892033E+01 0.41466426569E+01 0.41978127739E+01 0.42460799671E+01
 0.42904649669E+01 0.43301794500E+01 0.43646628931E+01 0.43935976724E+01 0.44168955576E+01
 0.44346530196E+01 0.44470797910E+01 0.44544129602E+01 0.44568347023E+01 0.44544129505E+01
 0.44470797776E+01 0.44346530121E+01 0.44168955656E+01 0.43935977011E+01 0.43646629415E+01
 0.43301795104E+01 0.42904650273E+01 0.42460800150E+01 0.41978127998E+01 0.40674291862E+01
 0.40405321546E+01 0.40136116652E+01 0.39872649253E+01 0.39620500205E+01 0.39384700232E+01
 0.39169636860E+01 0.38979019715E+01 0.38815892195E+01 0.38682673768E+01 0.38581215806E+01
 0.38512856158E+01 0.38478462838E+01 0.38478462868E+01 0.38512856235E+01 0.38581215891E+01
 0.38682673822E+01 0.38815892201E+01 0.38979019691E+01 0.39169636858E+01 0.39384700318E+01
 0.39620500430E+01 0.39872649624E+01 0.40136117120E+01 0.40405322015E+01 0.40674292216E+01
 0.40936892033E+01 0.41187114665E+01 0.41419424673E+01 0.41629118769E+01 0.41812653422E+01
 0.41967872417E+01 0.42094066324E+01 0.42191817128E+01 0.42262625739E+01 0.42308378374E+01
 0.42330761265E+01 0.42330761243E+01 0.42308378333E+01 0.42262625744E+01 0.42191817250E+01
 0.42094066611E+01 0.41967872859E+01 0.41812653949E+01 0.41629119268E+01 0.41419425026E+01
 0.41187114784E+01 0.40936891894E+01 0.40406561384E+01 0.40405321578E+01 0.40401547384E+01
 0.40395111113E+01 0.40385913325E+01 0.40374023001E+01 0.40359817741E+01 0.40344078350E+01
 0.40327996618E+01 0.40313073062E+01 0.40300910795E+01 0.40292944743E+01 0.40290170592E+01
 0.40292944768E+01 0.40300910811E+01 0.40313073017E+01 0.40327996474E+01 0.40344078104E+01
 0.40359817440E+01 0.40374022732E+01 0.40385913185E+01 0.40395111171E+01 0.40401547657E+01
 0.40405322015E+01 0.40406561882E+01 0.40405322015E+01 0.40401547657E+01 0.40395111171E+01
 0.40385913185E+01 0.40374022732E+01 0.40359817440E+01 0.40344078104E+01 0.40327996474E+01
 0.40313073017E+01 0.40300910811E+01 0.40292944768E+01 0.40290170592E+01 0.40292944743E+01
 0.40300910795E+01 0.40313073062E+01 0.40327996618E+01 0.40344078350E+01 0.40359817741E+01
 0.40374023001E+01 0.40385913325E+01 0.40395111113E+01 0.40401547384E+01 0.40405321578E+01
 0.40674291862E+01 0.40936891894E+01 0.41187114784E+01 0.41419425026E+01 0.41629119268E+01
 0.41812653949E+01 0.41967872859E+01 0.42094066611E+01 0.42191817250E+01 0.42262625744E+01
 0.42308378333E+01 0.42330761243E+01 0.42330761265E+01 0.42308378374E+01 0.42262625739E+01
 0.42191817128E+01 0.42094066324E+01 0.41967872417E+01 0.41812653422E+01 0.41629118769E+01
 0.41419424673E+01 0.41187114665E+01 0.40936892033E+01 0.40674292216E+01 0.40405322015E+01
 0.40136117120E+01 0.39872649624E+01 0.39620500430E+01 0.39384700318E+01 0.39169636858E+01
 0.38979019691E+01 0.38815892201E+01 0.38682673822E+01 0.38581215891E+01 0.38512856235E+01
 0.38478462868E+01 0.38478462838E+01 0.38512856158E+01 0.38581215806E+01 0.38682673768E+01
 0.38815892195E+01 0.38979019715E+01 0.39169636860E+01 0.39384700232E+01 0.39620500205E+01
 0.39872649253E+01 0.40136116652E+01 0.40405321546E+01 0.41466426575E+01 0.41978127998E+01
 0.42460800150E+01 0.42904650273E+01 0.43301795104E+01 0.43646629415E+01 0.43935977011E+01
 0.44168955656E+01 0.44346530121E+01 0.44470797776E+01 0.44544129505E+01 0.44568347023E+01
 0.44544129602E+01 0.44470797910E+01 0.44346530196E+01 0.44168955576E+01 0.43935976724E+01
 0.43646628931E+01 0.43301794500E+01 0.42904649669E+01 0.42460799671E+01 0.41978127739E+01
 0.41466426569E+01 0.40936892033E+01 0.40401547657E+01 0.39872649624E+01 0.39362108383E+01
 0.38880959675E+01 0.38438921962E+01 0.38044080767E+01 0.37702735168E+01 0.37419423891E+01
 0.37197120194E+01 0.37037553011E+01 0.36941585302E+01 0.36909567135E+01 0.36941585221E+01
 0.37037552868E+01 0.37197120020E+01 0.37419423709E+01 0.37702734982E+01 0.38044080559E+01
 0.38438921702E+01 0.38880959341E+01 0.39362107982E+01 0.39872649199E+01 0.40401547288E+01
 0.40936891814E+01 0.42749983872E+01 0.43485629396E+01 0.44169940849E+01 0.44790409025E+01
 0.45337637450E+01 0.45805584479E+01 0.46191477064E+01 0.46495350938E+01 0.46719235613E+01
 0.46866091682E+01 0.46938693156E+01 0.46938693237E+01 0.46866091896E+01 0.46719235883E+01
 0.46495351159E+01 0.46191477142E+01 0.45805584355E+01 0.45337637123E+01 0.44790408546E+01
 0.44169940309E+01 0.43485628900E+01 0.42749983510E+01 0.41978127739E+01 0.41187114665E+01
 0.40395111171E+01 0.39620500430E+01 0.38880959675E+01 0.38192589796E+01 0.37569191148E+01
 0.37021781503E+01 0.36558428274E+01 0.36184418448E+01 0.35902725879E+01 0.35714672572E+01
 0.35620635321E+01 0.35620635299E+01 0.35714672503E+01 0.35902725764E+01 0.36184418283E+01
 0.36558428053E+01 0.37021781224E+01 0.37569190816E+01 0.38192589429E+01 0.38880959309E+01
 0.39620500120E+01 0.40395110977E+01 0.41187114641E+01 0.41978127913E+01 0.44470806753E+01
 0.45395650395E+01 0.46242799512E+01 0.46998842525E+01 0.47654633447E+01 0.48205245718E+01
 0.48649518951E+01 0.48989195320E+01 0.49227722125E+01 0.49368895329E+01 0.49415596735E+01
 0.49368895478E+01 0.49227722397E+01 0.48989195669E+01 0.48649519313E+01 0.48205246020E+01
 0.47654633621E+01 0.46998842522E+01 0.46242799319E+01 0.45395650039E+01 0.44470806301E+01
 0.43485628900E+01 0.42460799671E+01 0.41419424673E+01 0.40385913185E+01 0.39384700318E+01
 0.38438921962E+01 0.37569191148E+01 0.36792642538E+01 0.36122390618E+01 0.35567485199E+01
 0.35133356180E+01 0.34822639673E+01 0.34636193853E+01 0.34574067724E+01 0.34636193909E+01
 0.34822639750E+01 0.35133356222E+01 0.35567485152E+01 0.36122390453E+01 0.36792642268E+01
 0.37569190829E+01 0.38438921674E+01 0.39384700147E+01 0.40385913191E+01 0.41419424876E+01
 0.42460800038E+01 0.43485629357E+01 0.46555291974E+01 0.47626415555E+01 0.48591402737E+01
 0.49437855598E+01 0.50158570037E+01 0.50750924233E+01 0.51214387423E+01 0.51552185675E+01
 0.51771215884E+01 0.51878555200E+01 0.51878555223E+01 0.51771215970E+01 0.51552185861E+01
 0.51214387742E+01 0.50750924682E+01 0.50158570564E+01 0.49437856102E+01 0.48591403098E+01
 0.47626415676E+01 0.46555291814E+01 0.45395650039E+01 0.44169940309E+01 0.42904649669E+01
 0.41629118769E+01 0.40374022732E+01 0.39169636858E+01 0.38044080767E+01 0.37021781503E+01
 0.36122390618E+01 0.35360324453E+01 0.34744982836E+01 0.34281565855E+01 0.33972283205E+01
 0.33817665680E+01 0.33817665769E+01 0.33972283437E+01 0.34281566135E+01 0.34744983054E+01
 0.35360324529E+01 0.36122390534E+01 0.37021781315E+01 0.38044080587E+01 0.39169636806E+01
 0.40374022890E+01 0.41629119144E+01 0.42904650189E+01 0.44169940842E+01 0.45395650440E+01
 0.48913425167E+01 0.50081756573E+01 0.51115517692E+01 0.52000178567E+01 0.52723698517E+01
 0.53286521742E+01 0.53699025967E+01 0.53976821827E+01 0.54135723949E+01 0.54187285763E+01
 0.54135723851E+01 0.53976821711E+01 0.53699025954E+01 0.53286521940E+01 0.52723698968E+01
 0.52000179217E+01 0.51115518402E+01 0.50081757167E+01 0.48913425492E+01 0.47626415676E+01
 0.46242799319E+01 0.44790408546E+01 0.43301794500E+01 0.41812653422E+01 0.40359817440E+01
 0.38979019691E+01 0.37702735168E+01 0.36558428274E+01 0.35567485199E+01 0.34744982836E+01
 0.34100277577E+01 0.33638228542E+01 0.33360739155E+01 0.33268237908E+01 0.33360739369E+01
 0.33638228893E+01 0.34100277944E+01 0.34744983107E+01 0.35567485318E+01 0.36558428265E+01
 0.37702735126E+01 0.38979019737E+01 0.40359817667E+01 0.41812653846E+01 0.43301795046E+01
 0.44790409066E+01 0.46242799649E+01 0.47626415694E+01 0.51442633419E+01 0.52642720335E+01
 0.53651714588E+01 0.54458512668E+01 0.55070081599E+01 0.55507051936E+01 0.55797704929E+01
 0.55971243305E+01 0.56051392916E+01 0.56051392802E+01 0.55971243014E+01 0.55797704593E+01
 0.55507051719E+01 0.55070081631E+01 0.54458512997E+01 0.53651715159E+01 0.52642721008E+01
 0.51442634021E+01 0.50081757167E+01 0.48591403098E+01 0.46998842522E+01 0.45337637123E+01
 0.43646628931E+01 0.41967872417E+01 0.40344078104E+01 0.38815892201E+01 0.37419423891E+01
 0.36184418448E+01 0.35133356180E+01 0.34281565855E+01 0.33638228542E+01 0.33207965451E+01
 0.32992590858E+01 0.32992590936E+01 0.33207965657E+01 0.33638228809E+01 0.34281566106E+01
 0.35133356362E+01 0.36184418559E+01 0.37419423977E+01 0.38815892335E+01 0.40344078344E+01
 0.41967872774E+01 0.43646629347E+01 0.45337637487E+01 0.46998842706E+01 0.48591403006E+01
 0.50081756783E+01 0.53963043525E+01 0.55041314849E+01 0.55868504136E+01 0.56459492639E+01
 0.56847937741E+01 0.57078908081E+01 0.57200254575E+01 0.57253911508E+01 0.57268426573E+01
 0.57253911282E+01 0.57200254190E+01 0.57078907652E+01 0.56847937394E+01 0.56459492474E+01
 0.55868504199E+01 0.55041315122E+01 0.53963043931E+01 0.52642721008E+01 0.51115518402E+01
 0.49437856102E+01 0.47654633621E+01 0.45805584355E+01 0.43935976724E+01 0.42094066324E+01
 0.40327996474E+01 0.38682673822E+01 0.37197120194E+01 0.35902725879E+01 0.34822639673E+01
 0.33972283205E+01 0.33360739155E+01 0.32992590858E+01 0.32869718097E+01 0.32992590857E+01
 0.33360739156E+01 0.33972283215E+01 0.34822639704E+01 0.35902725948E+01 0.37197120318E+01
 0.38682674007E+01 0.40327996707E+01 0.42094066571E+01 0.43935976931E+01 0.45805584459E+01
 0.47654633571E+01 0.49437855881E+01 0.51115518038E+01 0.52642720571E+01 0.56127971556E+01
 0.56903698689E+01 0.57391626248E+01 0.57640412854E+01 0.57715641473E+01 0.57689202148E+01
 0.57627984005E+01 0.57583418874E+01 0.57583418818E+01 0.57627983836E+01 0.57689201877E+01
 0.57715641122E+01 0.57640412464E+01 0.57391625881E+01 0.56903698413E+01 0.56127971432E+01
 0.55041315122E+01 0.53651715159E+01 0.52000179217E+01 0.50158570564E+01 0.48205246020E+01
 0.46191477142E+01 0.44168955576E+01 0.42191817128E+01 0.40313073017E+01 0.38581215891E+01
 0.37037553011E+01 0.35714672572E+01 0.34636193853E+01 0.33817665680E+01 0.33268237908E+01
 0.32992590936E+01 0.32992590857E+01 0.33268237701E+01 0.33817665418E+01 0.34636193628E+01
 0.35714672459E+01 0.37037553041E+01 0.38581216038E+01 0.40313073210E+01 0.42191817274E+01
 0.44168955598E+01 0.46191477003E+01 0.48205245739E+01 0.50158570209E+01 0.52000178882E+01