   1   1   1   0
  0.1482975E+02  0.2757716E-09  0.2757716E-09  0.2757716E-09  0.5000000E-15
  1.000000000000000E-004
  CAR 
 DFT Virtual Orbitals Calculation        
     28.55504048     -5.95557837 1000      9.67753295      1.00000000
     -5.956  0.0000E+00  0.0000E+00
     -5.921  0.0000E+00  0.0000E+00
     -5.886  0.0000E+00  0.0000E+00
     -5.852  0.0000E+00  0.0000E+00
     -5.817  0.0000E+00  0.0000E+00
     -5.783  0.0000E+00  0.0000E+00
     -5.748  0.0000E+00  0.0000E+00
     -5.714  0.0000E+00  0.0000E+00
     -5.679  0.0000E+00  0.0000E+00
     -5.645  0.0000E+00  0.0000E+00
     -5.610  0.0000E+00  0.0000E+00
     -5.576  0.0000E+00  0.0000E+00
     -5.541  0.0000E+00  0.0000E+00
     -5.506  0.0000E+00  0.0000E+00
     -5.472  0.0000E+00  0.0000E+00
     -5.437  0.0000E+00  0.0000E+00
     -5.403  0.0000E+00  0.0000E+00
     -5.368  0.0000E+00  0.0000E+00
     -5.334  0.0000E+00  0.0000E+00
     -5.299  0.0000E+00  0.0000E+00
     -5.265  0.0000E+00  0.0000E+00
     -5.230  0.0000E+00  0.0000E+00
     -5.196  0.0000E+00  0.0000E+00
     -5.161  0.0000E+00  0.0000E+00
     -5.126  0.0000E+00  0.0000E+00
     -5.092  0.0000E+00  0.0000E+00
     -5.057  0.0000E+00  0.0000E+00
     -5.023  0.0000E+00  0.0000E+00
     -4.988  0.0000E+00  0.0000E+00
     -4.954  0.1488E-15  0.5140E-17
     -4.919  0.6755E-14  0.2385E-15
     -4.885  0.2518E-12  0.8935E-14
     -4.850  0.7405E-11  0.2648E-12
     -4.816  0.1721E-09  0.6210E-11
     -4.781  0.3160E-08  0.1154E-09
     -4.746  0.4586E-07  0.1699E-08
     -4.712  0.5259E-06  0.1987E-07
     -4.677  0.4769E-05  0.1846E-06
     -4.643  0.3419E-04  0.1366E-05
     -4.608  0.1938E-03  0.8062E-05
     -4.574  0.8693E-03  0.3809E-04
     -4.539  0.3084E-02  0.1446E-03
     -4.505  0.8655E-02  0.4436E-03
     -4.470  0.1922E-01  0.1107E-02
     -4.436  0.3377E-01  0.2274E-02
     -4.401  0.4696E-01  0.3896E-02
     -4.367  0.5167E-01  0.5681E-02
     -4.332  0.4500E-01  0.7236E-02
     -4.297  0.3102E-01  0.8307E-02
     -4.263  0.1692E-01  0.8892E-02
     -4.228  0.7300E-02  0.9144E-02
     -4.194  0.2493E-02  0.9230E-02
     -4.159  0.6734E-03  0.9253E-02
     -4.125  0.1439E-03  0.9258E-02
     -4.090  0.2432E-04  0.9259E-02
     -4.056  0.3250E-05  0.9259E-02
     -4.021  0.3449E-06  0.9259E-02
     -3.987  0.5496E-07  0.9259E-02
     -3.952  0.3818E-06  0.9259E-02
     -3.917  0.4343E-05  0.9259E-02
     -3.883  0.3925E-04  0.9261E-02
     -3.848  0.2805E-03  0.9270E-02
     -3.814  0.1585E-02  0.9325E-02
     -3.779  0.7087E-02  0.9570E-02
     -3.745  0.2506E-01  0.1044E-01
     -3.710  0.7011E-01  0.1286E-01
     -3.676  0.1552E+00  0.1822E-01
     -3.641  0.2718E+00  0.2761E-01
     -3.607  0.3768E+00  0.4063E-01
     -3.572  0.4137E+00  0.5492E-01
     -3.537  0.3608E+00  0.6738E-01
     -3.503  0.2550E+00  0.7619E-01
     -3.468  0.1616E+00  0.8177E-01
     -3.434  0.1289E+00  0.8622E-01
     -3.399  0.1650E+00  0.9192E-01
     -3.365  0.2399E+00  0.1002E+00
     -3.330  0.3008E+00  0.1106E+00
     -3.296  0.3031E+00  0.1211E+00
     -3.261  0.2424E+00  0.1295E+00
     -3.227  0.1534E+00  0.1348E+00
     -3.192  0.7685E-01  0.1374E+00
     -3.157  0.3046E-01  0.1385E+00
     -3.123  0.9554E-02  0.1388E+00
     -3.088  0.2370E-02  0.1389E+00
     -3.054  0.4651E-03  0.1389E+00
     -3.019  0.7219E-04  0.1389E+00
     -2.985  0.8860E-05  0.1389E+00
     -2.950  0.8597E-06  0.1389E+00
     -2.916  0.6594E-07  0.1389E+00
     -2.881  0.3997E-08  0.1389E+00
     -2.847  0.1915E-09  0.1389E+00
     -2.812  0.7303E-11  0.1389E+00
     -2.777  0.2396E-11  0.1389E+00
     -2.743  0.6555E-10  0.1389E+00
     -2.708  0.1557E-08  0.1389E+00
     -2.674  0.2922E-07  0.1389E+00
     -2.639  0.4334E-06  0.1389E+00
     -2.605  0.5081E-05  0.1389E+00
     -2.570  0.4708E-04  0.1389E+00
     -2.536  0.3450E-03  0.1389E+00
     -2.501  0.1999E-02  0.1390E+00
     -2.467  0.9163E-02  0.1393E+00
     -2.432  0.3322E-01  0.1404E+00
     -2.397  0.9529E-01  0.1437E+00
     -2.363  0.2163E+00  0.1512E+00
     -2.328  0.3884E+00  0.1646E+00
     -2.294  0.5519E+00  0.1837E+00
     -2.259  0.6207E+00  0.2051E+00
     -2.225  0.5524E+00  0.2242E+00
     -2.190  0.3891E+00  0.2376E+00
     -2.156  0.2169E+00  0.2451E+00
     -2.121  0.9566E-01  0.2484E+00
     -2.087  0.3338E-01  0.2496E+00
     -2.052  0.9217E-02  0.2499E+00
     -2.017  0.2013E-02  0.2500E+00
     -1.983  0.3477E-03  0.2500E+00
     -1.948  0.4750E-04  0.2500E+00
     -1.914  0.5137E-05  0.2500E+00
     -1.879  0.5547E-06  0.2500E+00
     -1.845  0.1661E-05  0.2500E+00
     -1.810  0.1805E-04  0.2500E+00
     -1.776  0.1578E-03  0.2500E+00
     -1.741  0.1091E-02  0.2500E+00
     -1.707  0.5963E-02  0.2502E+00
     -1.672  0.2578E-01  0.2511E+00
     -1.637  0.8820E-01  0.2542E+00
     -1.603  0.2387E+00  0.2624E+00
     -1.568  0.5112E+00  0.2801E+00
     -1.534  0.8662E+00  0.3100E+00
     -1.499  0.1162E+01  0.3501E+00
     -1.465  0.1234E+01  0.3928E+00
     -1.430  0.1040E+01  0.4287E+00
     -1.396  0.7047E+00  0.4530E+00
     -1.361  0.4124E+00  0.4673E+00
     -1.327  0.2718E+00  0.4766E+00
     -1.292  0.2797E+00  0.4863E+00
     -1.257  0.3586E+00  0.4987E+00
     -1.223  0.4137E+00  0.5130E+00
     -1.188  0.3872E+00  0.5264E+00
     -1.154  0.2881E+00  0.5363E+00
     -1.119  0.1697E+00  0.5422E+00
     -1.085  0.7914E-01  0.5449E+00
     -1.050  0.2920E-01  0.5459E+00
     -1.016  0.8524E-02  0.5462E+00
     -0.981  0.1968E-02  0.5463E+00
     -0.947  0.3595E-03  0.5463E+00
     -0.912  0.5193E-04  0.5463E+00
     -0.877  0.5932E-05  0.5463E+00
     -0.843  0.5356E-06  0.5463E+00
     -0.808  0.3823E-07  0.5463E+00
     -0.774  0.2156E-08  0.5463E+00
     -0.739  0.9610E-10  0.5463E+00
     -0.705  0.3553E-11  0.5463E+00
     -0.670  0.5842E-11  0.5463E+00
     -0.636  0.1543E-09  0.5463E+00
     -0.601  0.3274E-08  0.5463E+00
     -0.567  0.5489E-07  0.5463E+00
     -0.532  0.7272E-06  0.5463E+00
     -0.497  0.7615E-05  0.5463E+00
     -0.463  0.6305E-04  0.5463E+00
     -0.428  0.4128E-03  0.5463E+00
     -0.394  0.2137E-02  0.5464E+00
     -0.359  0.8753E-02  0.5467E+00
     -0.325  0.2836E-01  0.5477E+00
     -0.290  0.7270E-01  0.5502E+00
     -0.256  0.1475E+00  0.5553E+00
     -0.221  0.2367E+00  0.5634E+00
     -0.187  0.3006E+00  0.5738E+00
     -0.152  0.3022E+00  0.5843E+00
     -0.117  0.2404E+00  0.5926E+00
     -0.083  0.1513E+00  0.5978E+00
     -0.048  0.7538E-01  0.6004E+00
     -0.014  0.2971E-01  0.6014E+00
      0.021  0.9267E-02  0.6018E+00
      0.055  0.2286E-02  0.6018E+00
      0.090  0.4462E-03  0.6018E+00
      0.124  0.6887E-04  0.6019E+00
      0.159  0.8411E-05  0.6019E+00
      0.193  0.9181E-06  0.6019E+00
      0.228  0.1572E-05  0.6019E+00
      0.263  0.1683E-04  0.6019E+00
      0.297  0.1481E-03  0.6019E+00
      0.332  0.1031E-02  0.6019E+00
      0.366  0.5680E-02  0.6021E+00
      0.401  0.2474E-01  0.6029E+00
      0.435  0.8523E-01  0.6059E+00
      0.470  0.2323E+00  0.6139E+00
      0.504  0.5011E+00  0.6312E+00
      0.539  0.8553E+00  0.6608E+00
      0.573  0.1155E+01  0.7007E+00
      0.608  0.1237E+01  0.7434E+00
      0.643  0.1055E+01  0.7798E+00
      0.677  0.7398E+00  0.8054E+00
      0.712  0.4986E+00  0.8226E+00
      0.746  0.4750E+00  0.8390E+00
      0.781  0.6825E+00  0.8626E+00
      0.815  0.9989E+00  0.8971E+00
      0.850  0.1221E+01  0.9393E+00
      0.884  0.1191E+01  0.9804E+00
      0.919  0.9219E+00  0.1012E+01
      0.953  0.5646E+00  0.1032E+01
      0.988  0.2737E+00  0.1041E+01
      1.023  0.1050E+00  0.1045E+01
      1.057  0.3185E-01  0.1046E+01
      1.092  0.7644E-02  0.1046E+01
      1.126  0.1451E-02  0.1046E+01
      1.161  0.2179E-03  0.1046E+01
      1.195  0.2587E-04  0.1046E+01
      1.230  0.2429E-05  0.1046E+01
      1.264  0.1802E-06  0.1046E+01
      1.299  0.1057E-07  0.1046E+01
      1.333  0.4901E-09  0.1046E+01
      1.368  0.3558E-10  0.1046E+01
      1.403  0.4832E-09  0.1046E+01
      1.437  0.1043E-07  0.1046E+01
      1.472  0.1780E-06  0.1046E+01
      1.506  0.2402E-05  0.1046E+01
      1.541  0.2561E-04  0.1046E+01
      1.575  0.2160E-03  0.1046E+01
      1.610  0.1440E-02  0.1046E+01
      1.644  0.7591E-02  0.1047E+01
      1.679  0.3166E-01  0.1048E+01
      1.713  0.1045E+00  0.1051E+01
      1.748  0.2726E+00  0.1061E+01
      1.783  0.5631E+00  0.1080E+01
      1.817  0.9203E+00  0.1112E+01
      1.852  0.1190E+01  0.1153E+01
      1.886  0.1218E+01  0.1195E+01
      1.921  0.9869E+00  0.1229E+01
      1.955  0.6326E+00  0.1251E+01
      1.990  0.3209E+00  0.1262E+01
      2.024  0.1289E+00  0.1267E+01
      2.059  0.4133E-01  0.1268E+01
      2.093  0.1236E-01  0.1269E+01
      2.128  0.1010E-01  0.1269E+01
      2.163  0.2490E-01  0.1270E+01
      2.197  0.5940E-01  0.1272E+01
      2.232  0.1134E+00  0.1276E+01
      2.266  0.1715E+00  0.1282E+01
      2.301  0.2052E+00  0.1289E+01
      2.335  0.1943E+00  0.1295E+01
      2.370  0.1459E+00  0.1300E+01
      2.404  0.8850E-01  0.1304E+01
      2.439  0.5129E-01  0.1305E+01
      2.473  0.5760E-01  0.1307E+01
      2.508  0.1374E+00  0.1312E+01
      2.543  0.3300E+00  0.1323E+01
      2.577  0.6440E+00  0.1346E+01
      2.612  0.9970E+00  0.1380E+01
      2.646  0.1222E+01  0.1422E+01
      2.681  0.1185E+01  0.1463E+01
      2.715  0.9095E+00  0.1495E+01
      2.750  0.5524E+00  0.1514E+01
      2.784  0.2656E+00  0.1523E+01
      2.819  0.1015E+00  0.1526E+01
      2.853  0.3281E-01  0.1528E+01
      2.888  0.1637E-01  0.1528E+01
      2.923  0.2858E-01  0.1529E+01
      2.957  0.6436E-01  0.1531E+01
      2.992  0.1197E+00  0.1535E+01
      3.026  0.1766E+00  0.1542E+01
      3.061  0.2063E+00  0.1549E+01
      3.095  0.1906E+00  0.1555E+01
      3.130  0.1395E+00  0.1560E+01
      3.164  0.8073E-01  0.1563E+01
      3.199  0.3698E-01  0.1564E+01
      3.233  0.1340E-01  0.1565E+01
      3.268  0.3843E-02  0.1565E+01
      3.303  0.8717E-03  0.1565E+01
      3.337  0.1564E-03  0.1565E+01
      3.372  0.2219E-04  0.1565E+01
      3.406  0.2489E-05  0.1565E+01
      3.441  0.2211E-06  0.1565E+01
      3.475  0.2298E-07  0.1565E+01
      3.510  0.1253E-06  0.1565E+01
      3.544  0.1631E-05  0.1565E+01
      3.579  0.1689E-04  0.1565E+01
      3.613  0.1383E-03  0.1565E+01
      3.648  0.8958E-03  0.1565E+01
      3.683  0.4588E-02  0.1565E+01
      3.717  0.1859E-01  0.1566E+01
      3.752  0.5957E-01  0.1568E+01
      3.786  0.1510E+00  0.1573E+01
      3.821  0.3030E+00  0.1583E+01
      3.855  0.4811E+00  0.1600E+01
      3.890  0.6045E+00  0.1621E+01
      3.924  0.6011E+00  0.1642E+01
      3.959  0.4730E+00  0.1658E+01
      3.993  0.2945E+00  0.1668E+01
      4.028  0.1451E+00  0.1673E+01
      4.063  0.5663E-01  0.1675E+01
      4.097  0.1777E-01  0.1676E+01
      4.132  0.6249E-02  0.1676E+01
      4.166  0.1087E-01  0.1676E+01
      4.201  0.4024E-01  0.1678E+01
      4.235  0.1268E+00  0.1682E+01
      4.270  0.3170E+00  0.1693E+01
      4.304  0.6272E+00  0.1715E+01
      4.339  0.9820E+00  0.1749E+01
      4.373  0.1217E+01  0.1791E+01
      4.408  0.1195E+01  0.1832E+01
      4.443  0.9322E+00  0.1864E+01
      4.477  0.5883E+00  0.1884E+01
      4.512  0.3234E+00  0.1896E+01
      4.546  0.1948E+00  0.1902E+01
      4.581  0.1639E+00  0.1908E+01
      4.615  0.1623E+00  0.1914E+01
      4.650  0.1451E+00  0.1919E+01
      4.684  0.1059E+00  0.1922E+01
      4.719  0.6178E-01  0.1924E+01
      4.753  0.3004E-01  0.1926E+01
      4.788  0.1987E-01  0.1926E+01
      4.823  0.4535E-01  0.1928E+01
      4.857  0.1498E+00  0.1933E+01
      4.892  0.4163E+00  0.1947E+01
      4.926  0.9204E+00  0.1979E+01
      4.961  0.1614E+01  0.2035E+01
      4.995  0.2243E+01  0.2112E+01
      5.030  0.2471E+01  0.2198E+01
      5.064  0.2159E+01  0.2272E+01
      5.099  0.1496E+01  0.2324E+01
      5.133  0.8231E+00  0.2352E+01
      5.168  0.3646E+00  0.2365E+01
      5.203  0.1445E+00  0.2370E+01
      5.237  0.8324E-01  0.2373E+01
      5.272  0.9881E-01  0.2376E+01
      5.306  0.1351E+00  0.2381E+01
      5.341  0.1554E+00  0.2386E+01
      5.375  0.1436E+00  0.2391E+01
      5.410  0.1109E+00  0.2395E+01
      5.444  0.8883E-01  0.2398E+01
      5.479  0.1142E+00  0.2402E+01
      5.513  0.2123E+00  0.2409E+01
      5.548  0.3746E+00  0.2422E+01
      5.583  0.5404E+00  0.2441E+01
      5.617  0.6202E+00  0.2462E+01
      5.652  0.5638E+00  0.2482E+01
      5.686  0.4056E+00  0.2496E+01
      5.721  0.2309E+00  0.2504E+01
      5.755  0.1040E+00  0.2508E+01
      5.790  0.3709E-01  0.2509E+01
      5.824  0.1046E-01  0.2509E+01
      5.859  0.2334E-02  0.2509E+01
      5.893  0.4119E-03  0.2509E+01
      5.928  0.5944E-04  0.2509E+01
      5.963  0.2644E-04  0.2509E+01
      5.997  0.1621E-03  0.2509E+01
      6.032  0.1027E-02  0.2509E+01
      6.066  0.5165E-02  0.2509E+01
      6.101  0.2054E-01  0.2510E+01
      6.135  0.6463E-01  0.2512E+01
      6.170  0.1609E+00  0.2518E+01
      6.204  0.3169E+00  0.2529E+01
      6.239  0.4940E+00  0.2546E+01
      6.273  0.6094E+00  0.2567E+01
      6.308  0.5949E+00  0.2588E+01
      6.343  0.4599E+00  0.2603E+01
      6.377  0.2831E+00  0.2613E+01
      6.412  0.1455E+00  0.2618E+01
      6.446  0.8669E-01  0.2621E+01
      6.481  0.1148E+00  0.2625E+01
      6.515  0.2289E+00  0.2633E+01
      6.550  0.4122E+00  0.2647E+01
      6.584  0.6184E+00  0.2669E+01
      6.619  0.8010E+00  0.2696E+01
      6.653  0.9629E+00  0.2730E+01
      6.688  0.1138E+01  0.2769E+01
      6.722  0.1300E+01  0.2814E+01
      6.757  0.1333E+01  0.2860E+01
      6.792  0.1152E+01  0.2900E+01
      6.826  0.8082E+00  0.2928E+01
      6.861  0.4536E+00  0.2943E+01
      6.895  0.2023E+00  0.2950E+01
      6.930  0.7150E-01  0.2953E+01
      6.964  0.2000E-01  0.2954E+01
      6.999  0.4428E-02  0.2954E+01
      7.033  0.7754E-03  0.2954E+01
      7.068  0.1074E-03  0.2954E+01
      7.102  0.1203E-04  0.2954E+01
      7.137  0.4316E-05  0.2954E+01
      7.172  0.3198E-04  0.2954E+01
      7.206  0.2441E-03  0.2954E+01
      7.241  0.1476E-02  0.2954E+01
      7.275  0.7062E-02  0.2954E+01
      7.310  0.2672E-01  0.2955E+01
      7.344  0.7999E-01  0.2958E+01
      7.379  0.1895E+00  0.2964E+01
      7.413  0.3551E+00  0.2977E+01
      7.448  0.5267E+00  0.2995E+01
      7.482  0.6182E+00  0.3016E+01
      7.517  0.5743E+00  0.3036E+01
      7.552  0.4221E+00  0.3050E+01
      7.586  0.2456E+00  0.3059E+01
      7.621  0.1130E+00  0.3063E+01
      7.655  0.4117E-01  0.3064E+01
      7.690  0.1188E-01  0.3065E+01
      7.724  0.2820E-02  0.3065E+01
      7.759  0.1215E-02  0.3065E+01
      7.793  0.3695E-02  0.3065E+01
      7.828  0.1431E-01  0.3065E+01
      7.862  0.4464E-01  0.3067E+01
      7.897  0.1102E+00  0.3071E+01
      7.932  0.2154E+00  0.3078E+01
      7.966  0.3330E+00  0.3090E+01
      8.001  0.4075E+00  0.3104E+01
      8.035  0.3946E+00  0.3117E+01
      8.070  0.3024E+00  0.3128E+01
      8.104  0.1834E+00  0.3134E+01
      8.139  0.8829E-01  0.3137E+01
      8.173  0.3526E-01  0.3139E+01
      8.208  0.1944E-01  0.3139E+01
      8.242  0.4033E-01  0.3141E+01
      8.277  0.1216E+00  0.3145E+01
      8.312  0.3062E+00  0.3155E+01
      8.346  0.6124E+00  0.3177E+01
      8.381  0.9714E+00  0.3210E+01
      8.415  0.1227E+01  0.3252E+01
      8.450  0.1253E+01  0.3296E+01
      8.484  0.1079E+01  0.3333E+01
      8.519  0.8682E+00  0.3363E+01
      8.553  0.7497E+00  0.3389E+01
      8.588  0.7079E+00  0.3413E+01
      8.622  0.6423E+00  0.3436E+01
      8.657  0.4988E+00  0.3453E+01
      8.692  0.3147E+00  0.3464E+01
      8.726  0.1584E+00  0.3469E+01
      8.761  0.6325E-01  0.3471E+01
      8.795  0.2014E-01  0.3472E+01
      8.830  0.6043E-02  0.3472E+01
      8.864  0.6722E-02  0.3472E+01
      8.899  0.2509E-01  0.3473E+01
      8.933  0.8581E-01  0.3476E+01
      8.968  0.2335E+00  0.3484E+01
      9.002  0.5030E+00  0.3502E+01
      9.037  0.8574E+00  0.3531E+01
      9.072  0.1156E+01  0.3571E+01
      9.106  0.1234E+01  0.3614E+01
      9.141  0.1043E+01  0.3650E+01
      9.175  0.6970E+00  0.3674E+01
      9.210  0.3687E+00  0.3687E+01
      9.244  0.1544E+00  0.3692E+01
      9.279  0.5121E-01  0.3694E+01
      9.313  0.1411E-01  0.3694E+01
      9.348  0.7094E-02  0.3695E+01
      9.382  0.2114E-01  0.3695E+01
      9.417  0.7852E-01  0.3698E+01
      9.452  0.2356E+00  0.3706E+01
      9.486  0.5598E+00  0.3726E+01
      9.521  0.1053E+01  0.3762E+01
      9.555  0.1569E+01  0.3816E+01
      9.590  0.1851E+01  0.3880E+01
      9.624  0.1729E+01  0.3940E+01
      9.659  0.1278E+01  0.3984E+01
      9.693  0.7484E+00  0.4010E+01
      9.728  0.3469E+00  0.4022E+01
      9.762  0.1273E+00  0.4026E+01
      9.797  0.3697E-01  0.4027E+01
      9.832  0.8499E-02  0.4028E+01
      9.866  0.1546E-02  0.4028E+01
      9.901  0.2225E-03  0.4028E+01
      9.935  0.2556E-04  0.4028E+01
      9.970  0.5319E-05  0.4028E+01
     10.004  0.3203E-04  0.4028E+01
     10.039  0.2648E-03  0.4028E+01
     10.073  0.1745E-02  0.4028E+01
     10.108  0.9147E-02  0.4028E+01
     10.142  0.3820E-01  0.4029E+01
     10.177  0.1276E+00  0.4034E+01
     10.212  0.3421E+00  0.4046E+01
     10.246  0.7413E+00  0.4071E+01
     10.281  0.1306E+01  0.4116E+01
     10.315  0.1883E+01  0.4181E+01
     10.350  0.2234E+01  0.4259E+01
     10.384  0.2187E+01  0.4334E+01
     10.419  0.1768E+01  0.4395E+01
     10.453  0.1178E+01  0.4436E+01
     10.488  0.6572E+00  0.4459E+01
     10.522  0.3521E+00  0.4471E+01
     10.557  0.3012E+00  0.4481E+01
     10.592  0.4791E+00  0.4498E+01
     10.626  0.8046E+00  0.4526E+01
     10.661  0.1120E+01  0.4564E+01
     10.695  0.1241E+01  0.4607E+01
     10.730  0.1089E+01  0.4645E+01
     10.764  0.7568E+00  0.4671E+01
     10.799  0.4161E+00  0.4685E+01
     10.833  0.1810E+00  0.4692E+01
     10.868  0.6232E-01  0.4694E+01
     10.902  0.1707E-01  0.4694E+01
     10.937  0.4425E-02  0.4694E+01
     10.972  0.5025E-02  0.4695E+01
     11.006  0.1998E-01  0.4695E+01
     11.041  0.7117E-01  0.4698E+01
     11.075  0.2013E+00  0.4705E+01
     11.110  0.4506E+00  0.4720E+01
     11.144  0.7981E+00  0.4748E+01
     11.179  0.1119E+01  0.4787E+01
     11.213  0.1241E+01  0.4829E+01
     11.248  0.1089E+01  0.4867E+01
     11.282  0.7568E+00  0.4893E+01
     11.317  0.4160E+00  0.4908E+01
     11.352  0.1810E+00  0.4914E+01
     11.386  0.6230E-01  0.4916E+01
     11.421  0.1696E-01  0.4917E+01
     11.455  0.3654E-02  0.4917E+01
     11.490  0.6226E-03  0.4917E+01
     11.524  0.8524E-04  0.4917E+01
     11.559  0.2240E-04  0.4917E+01
     11.593  0.1057E-03  0.4917E+01
     11.628  0.6464E-03  0.4917E+01
     11.662  0.3150E-02  0.4917E+01
     11.697  0.1214E-01  0.4917E+01
     11.732  0.3701E-01  0.4918E+01
     11.766  0.8930E-01  0.4922E+01
     11.801  0.1705E+00  0.4927E+01
     11.835  0.2575E+00  0.4936E+01
     11.870  0.3078E+00  0.4947E+01
     11.904  0.2912E+00  0.4957E+01
     11.939  0.2181E+00  0.4965E+01
     11.973  0.1292E+00  0.4969E+01
     12.008  0.6058E-01  0.4971E+01
     12.042  0.2247E-01  0.4972E+01
     12.077  0.6596E-02  0.4972E+01
     12.112  0.1531E-02  0.4972E+01
     12.146  0.2813E-03  0.4972E+01
     12.181  0.4175E-04  0.4972E+01
     12.215  0.1459E-04  0.4972E+01
     12.250  0.8614E-04  0.4972E+01
     12.284  0.5873E-03  0.4972E+01
     12.319  0.3184E-02  0.4972E+01
     12.353  0.1368E-01  0.4973E+01
     12.388  0.4663E-01  0.4974E+01
     12.422  0.1267E+00  0.4979E+01
     12.457  0.2769E+00  0.4988E+01
     12.492  0.4952E+00  0.5005E+01
     12.526  0.7485E+00  0.5031E+01
     12.561  0.1000E+01  0.5066E+01
     12.595  0.1230E+01  0.5108E+01
     12.630  0.1397E+01  0.5157E+01
     12.664  0.1413E+01  0.5205E+01
     12.699  0.1216E+01  0.5247E+01
     12.733  0.8607E+00  0.5277E+01
     12.768  0.4952E+00  0.5294E+01
     12.802  0.2434E+00  0.5303E+01
     12.837  0.1446E+00  0.5308E+01
     12.872  0.1877E+00  0.5314E+01
     12.906  0.3605E+00  0.5327E+01
     12.941  0.6510E+00  0.5349E+01
     12.975  0.1010E+01  0.5384E+01
     13.010  0.1324E+01  0.5430E+01
     13.044  0.1454E+01  0.5480E+01
     13.079  0.1349E+01  0.5527E+01
     13.113  0.1109E+01  0.5565E+01
     13.148  0.8952E+00  0.5596E+01
     13.182  0.7813E+00  0.5623E+01
     13.217  0.7068E+00  0.5647E+01
     13.252  0.5848E+00  0.5667E+01
     13.286  0.4054E+00  0.5681E+01
     13.321  0.2269E+00  0.5689E+01
     13.355  0.1012E+00  0.5693E+01
     13.390  0.3649E-01  0.5694E+01
     13.424  0.1428E-01  0.5695E+01
     13.459  0.2164E-01  0.5695E+01
     13.493  0.7016E-01  0.5698E+01
     13.528  0.1985E+00  0.5705E+01
     13.562  0.4478E+00  0.5720E+01
     13.597  0.8048E+00  0.5748E+01
     13.632  0.1165E+01  0.5788E+01
     13.666  0.1395E+01  0.5836E+01
     13.701  0.1469E+01  0.5887E+01
     13.735  0.1495E+01  0.5939E+01
     13.770  0.1573E+01  0.5993E+01
     13.804  0.1666E+01  0.6051E+01
     13.839  0.1649E+01  0.6108E+01
     13.873  0.1458E+01  0.6158E+01
     13.908  0.1131E+01  0.6197E+01
     13.942  0.7624E+00  0.6223E+01
     13.977  0.4397E+00  0.6238E+01
     14.012  0.2126E+00  0.6246E+01
     14.046  0.8470E-01  0.6249E+01
     14.081  0.2820E-01  0.6250E+01
     14.115  0.1110E-01  0.6250E+01
     14.150  0.1479E-01  0.6251E+01
     14.184  0.3490E-01  0.6252E+01
     14.219  0.7132E-01  0.6254E+01
     14.253  0.1162E+00  0.6258E+01
     14.288  0.1509E+00  0.6264E+01
     14.322  0.1596E+00  0.6269E+01
     14.357  0.1491E+00  0.6274E+01
     14.392  0.1517E+00  0.6279E+01
     14.426  0.2001E+00  0.6286E+01
     14.461  0.2938E+00  0.6296E+01
     14.495  0.3858E+00  0.6310E+01
     14.530  0.4143E+00  0.6324E+01
     14.564  0.3566E+00  0.6336E+01
     14.599  0.2511E+00  0.6345E+01
     14.633  0.1672E+00  0.6351E+01
     14.668  0.1613E+00  0.6356E+01
     14.702  0.2533E+00  0.6365E+01
     14.737  0.4150E+00  0.6380E+01
     14.772  0.5677E+00  0.6399E+01
     14.806  0.6199E+00  0.6421E+01
     14.841  0.5363E+00  0.6439E+01
     14.875  0.3673E+00  0.6452E+01
     14.910  0.1990E+00  0.6459E+01
     14.944  0.8536E-01  0.6462E+01
     14.979  0.2896E-01  0.6463E+01
     15.013  0.7779E-02  0.6463E+01
     15.048  0.1688E-02  0.6463E+01
     15.082  0.5379E-03  0.6463E+01
     15.117  0.1471E-02  0.6463E+01
     15.152  0.6243E-02  0.6463E+01
     15.186  0.2150E-01  0.6464E+01
     15.221  0.5880E-01  0.6466E+01
     15.255  0.1283E+00  0.6470E+01
     15.290  0.2267E+00  0.6478E+01
     15.324  0.3367E+00  0.6490E+01
     15.359  0.4544E+00  0.6506E+01
     15.393  0.6137E+00  0.6527E+01
     15.428  0.8512E+00  0.6556E+01
     15.462  0.1121E+01  0.6595E+01
     15.497  0.1285E+01  0.6639E+01
     15.532  0.1242E+01  0.6682E+01
     15.566  0.1059E+01  0.6719E+01
     15.601  0.9329E+00  0.6751E+01
     15.635  0.9955E+00  0.6785E+01
     15.670  0.1176E+01  0.6826E+01
     15.704  0.1267E+01  0.6870E+01
     15.739  0.1130E+01  0.6909E+01
     15.773  0.8063E+00  0.6937E+01
     15.808  0.4569E+00  0.6952E+01
     15.842  0.2060E+00  0.6960E+01
     15.877  0.7909E-01  0.6962E+01
     15.912  0.5015E-01  0.6964E+01
     15.946  0.1152E+00  0.6968E+01
     15.981  0.3275E+00  0.6979E+01
     16.015  0.7657E+00  0.7006E+01
     16.050  0.1423E+01  0.7055E+01
     16.084  0.2100E+01  0.7128E+01
     16.119  0.2459E+01  0.7212E+01
     16.153  0.2284E+01  0.7291E+01
     16.188  0.1684E+01  0.7350E+01
     16.222  0.9857E+00  0.7384E+01
     16.257  0.4578E+00  0.7399E+01
     16.292  0.1697E+00  0.7405E+01
     16.326  0.5379E-01  0.7407E+01
     16.361  0.2605E-01  0.7408E+01
     16.395  0.3976E-01  0.7409E+01
     16.430  0.7819E-01  0.7412E+01
     16.464  0.1327E+00  0.7417E+01
     16.499  0.1959E+00  0.7423E+01
     16.533  0.2723E+00  0.7433E+01
     16.568  0.3784E+00  0.7446E+01
     16.602  0.5116E+00  0.7464E+01
     16.637  0.6199E+00  0.7485E+01
     16.672  0.6300E+00  0.7507E+01
     16.706  0.5188E+00  0.7525E+01
     16.741  0.3412E+00  0.7536E+01
     16.775  0.1781E+00  0.7543E+01
     16.810  0.7370E-01  0.7545E+01
     16.844  0.2414E-01  0.7546E+01
     16.879  0.6278E-02  0.7546E+01
     16.913  0.1482E-02  0.7546E+01
     16.948  0.1553E-02  0.7546E+01
     16.982  0.7183E-02  0.7547E+01
     17.017  0.3012E-01  0.7548E+01
     17.052  0.1002E+00  0.7551E+01
     17.086  0.2640E+00  0.7560E+01
     17.121  0.5501E+00  0.7579E+01
     17.155  0.9072E+00  0.7611E+01
     17.190  0.1184E+01  0.7651E+01
     17.224  0.1226E+01  0.7694E+01
     17.259  0.1014E+01  0.7729E+01
     17.293  0.6963E+00  0.7753E+01
     17.328  0.4640E+00  0.7769E+01
     17.362  0.4163E+00  0.7783E+01
     17.397  0.5228E+00  0.7801E+01
     17.431  0.6730E+00  0.7825E+01
     17.466  0.7585E+00  0.7851E+01
     17.501  0.7349E+00  0.7876E+01
     17.535  0.6237E+00  0.7898E+01
     17.570  0.4694E+00  0.7914E+01
     17.604  0.3104E+00  0.7925E+01
     17.639  0.1757E+00  0.7931E+01
     17.673  0.8282E-01  0.7934E+01
     17.708  0.3181E-01  0.7935E+01
     17.742  0.9822E-02  0.7935E+01
     17.777  0.2420E-02  0.7935E+01
     17.811  0.4742E-03  0.7935E+01
     17.846  0.8029E-04  0.7935E+01
     17.881  0.7107E-04  0.7935E+01
     17.915  0.4509E-03  0.7935E+01
     17.950  0.2607E-02  0.7935E+01
     17.984  0.1208E-01  0.7936E+01
     18.019  0.4487E-01  0.7937E+01
     18.053  0.1337E+00  0.7942E+01
     18.088  0.3203E+00  0.7953E+01
     18.122  0.6182E+00  0.7974E+01
     18.157  0.9675E+00  0.8008E+01
     18.191  0.1249E+01  0.8051E+01
     18.226  0.1395E+01  0.8099E+01
     18.261  0.1490E+01  0.8151E+01
     18.295  0.1714E+01  0.8210E+01
     18.330  0.2140E+01  0.8284E+01
     18.364  0.2606E+01  0.8374E+01
     18.399  0.2821E+01  0.8471E+01
     18.433  0.2600E+01  0.8561E+01
     18.468  0.2006E+01  0.8630E+01
     18.502  0.1285E+01  0.8675E+01
     18.537  0.6777E+00  0.8698E+01
     18.571  0.2922E+00  0.8708E+01
     18.606  0.1023E+00  0.8712E+01
     18.641  0.2896E-01  0.8713E+01
     18.675  0.6596E-02  0.8713E+01
     18.710  0.1211E-02  0.8713E+01
     18.744  0.2287E-03  0.8713E+01
     18.779  0.4109E-03  0.8713E+01
     18.813  0.2310E-02  0.8713E+01
     18.848  0.1080E-01  0.8713E+01
     18.882  0.3996E-01  0.8715E+01
     18.917  0.1170E+00  0.8719E+01
     18.951  0.2710E+00  0.8728E+01
     18.986  0.4966E+00  0.8745E+01
     19.021  0.7203E+00  0.8770E+01
     19.055  0.8268E+00  0.8799E+01
     19.090  0.7511E+00  0.8825E+01
     19.124  0.5399E+00  0.8843E+01
     19.159  0.3072E+00  0.8854E+01
     19.193  0.1383E+00  0.8859E+01
     19.228  0.4925E-01  0.8861E+01
     19.262  0.1388E-01  0.8861E+01
     19.297  0.3097E-02  0.8861E+01
     19.331  0.5751E-03  0.8861E+01
     19.366  0.3047E-03  0.8861E+01
     19.401  0.1402E-02  0.8861E+01
     19.435  0.6723E-02  0.8861E+01
     19.470  0.2564E-01  0.8862E+01
     19.504  0.7737E-01  0.8865E+01
     19.539  0.1847E+00  0.8871E+01
     19.573  0.3490E+00  0.8883E+01
     19.608  0.5217E+00  0.8901E+01
     19.642  0.6172E+00  0.8923E+01
     19.677  0.5779E+00  0.8943E+01
     19.711  0.4282E+00  0.8957E+01
     19.746  0.2511E+00  0.8966E+01
     19.781  0.1166E+00  0.8970E+01
     19.815  0.4327E-01  0.8972E+01
     19.850  0.1543E-01  0.8972E+01
     19.884  0.1721E-01  0.8973E+01
     19.919  0.5470E-01  0.8975E+01
     19.953  0.1619E+00  0.8980E+01
     19.988  0.3822E+00  0.8994E+01
     20.022  0.7144E+00  0.9018E+01
     20.057  0.1057E+01  0.9055E+01
     20.091  0.1237E+01  0.9097E+01
     20.126  0.1146E+01  0.9137E+01
     20.161  0.8402E+00  0.9166E+01
     20.195  0.4875E+00  0.9183E+01
     20.230  0.2238E+00  0.9191E+01
     20.264  0.8132E-01  0.9193E+01
     20.299  0.2357E-01  0.9194E+01
     20.333  0.6581E-02  0.9194E+01
     20.368  0.7291E-02  0.9195E+01
     20.402  0.2532E-01  0.9196E+01
     20.437  0.7997E-01  0.9198E+01
     20.471  0.2035E+00  0.9205E+01
     20.506  0.4171E+00  0.9220E+01
     20.541  0.6934E+00  0.9244E+01
     20.575  0.9419E+00  0.9276E+01
     20.610  0.1055E+01  0.9313E+01
     20.644  0.9843E+00  0.9347E+01
     20.679  0.7760E+00  0.9374E+01
     20.713  0.5393E+00  0.9392E+01
     20.748  0.3907E+00  0.9406E+01
     20.782  0.4146E+00  0.9420E+01
     20.817  0.6303E+00  0.9442E+01
     20.851  0.9528E+00  0.9475E+01
     20.886  0.1202E+01  0.9516E+01
     20.921  0.1214E+01  0.9558E+01
     20.955  0.9717E+00  0.9592E+01
     20.990  0.6160E+00  0.9613E+01
     21.024  0.3091E+00  0.9624E+01
     21.059  0.1227E+00  0.9628E+01
     21.093  0.3854E-01  0.9629E+01
     21.128  0.9582E-02  0.9630E+01
     21.162  0.1940E-02  0.9630E+01
     21.197  0.7137E-03  0.9630E+01
     21.231  0.2496E-02  0.9630E+01
     21.266  0.1151E-01  0.9630E+01
     21.301  0.4327E-01  0.9632E+01
     21.335  0.1317E+00  0.9636E+01
     21.370  0.3261E+00  0.9647E+01
     21.404  0.6617E+00  0.9670E+01
     21.439  0.1105E+01  0.9708E+01
     21.473  0.1521E+01  0.9761E+01
     21.508  0.1726E+01  0.9821E+01
     21.542  0.1611E+01  0.9876E+01
     21.577  0.1239E+01  0.9919E+01
     21.611  0.7971E+00  0.9947E+01
     21.646  0.4516E+00  0.9962E+01
     21.681  0.2542E+00  0.9971E+01
     21.715  0.1738E+00  0.9977E+01
     21.750  0.1838E+00  0.9983E+01
     21.784  0.3010E+00  0.9994E+01
     21.819  0.5486E+00  0.1001E+02
     21.853  0.8884E+00  0.1004E+02
     21.888  0.1210E+01  0.1009E+02
     21.922  0.1422E+01  0.1013E+02
     21.957  0.1548E+01  0.1019E+02
     21.991  0.1684E+01  0.1025E+02
     22.026  0.1868E+01  0.1031E+02
     22.061  0.2024E+01  0.1038E+02
     22.095  0.2039E+01  0.1045E+02
     22.130  0.1845E+01  0.1051E+02
     22.164  0.1456E+01  0.1056E+02
     22.199  0.9740E+00  0.1060E+02
     22.233  0.5385E+00  0.1062E+02
     22.268  0.2419E+00  0.1063E+02
     22.302  0.8727E-01  0.1063E+02
     22.337  0.2538E-01  0.1063E+02
     22.371  0.7601E-02  0.1063E+02
     22.406  0.1054E-01  0.1063E+02
     22.441  0.3842E-01  0.1063E+02
     22.475  0.1220E+00  0.1064E+02
     22.510  0.3077E+00  0.1065E+02
     22.544  0.6141E+00  0.1067E+02