    1    1    1    1
  0.1482975E+02  0.2757716E-09  0.2757716E-09  0.2757716E-09  0.5000000E-15
  1.000000000000000E-004
  CAR 
 DFT Virtual Orbitals Calculation        
      4     16      6
 
  0.0000000E+00  0.0000000E+00  0.0000000E+00  0.4629630E-02
      1         -4.386914   1.000000
      2         20.670532   0.000000
      3         20.670532   0.000000
      4         20.670532   0.000000
      5         21.675540   0.000000
      6         21.675540   0.000000
 
  0.1666667E+00  0.6511885E-17 -0.4739692E-14  0.3703704E-01
      1         -3.592847   1.000000
      2         14.507034   0.000000
      3         19.040932   0.000000
      4         19.040932   0.000000
      5         22.858262   0.000000
      6         23.770578   0.000000
 
  0.3333333E+00  0.4697097E-17  0.4723145E-14  0.3703704E-01
      1         -1.231875   1.000000
      2          7.995919   1.000000
      3         18.202523   0.000000
      4         18.202523   0.000000
      5         21.888694   0.000000
      6         21.888694   0.000000
 
  0.5000000E+00 -0.2668805E-17 -0.2668805E-17  0.1851852E-01
      1          2.292663   1.000000
      2          3.049090   1.000000
      3         18.166007   0.000000
      4         18.166007   0.000000
      5         20.620133   0.000000
      6         20.620133   0.000000
 
  0.1666667E+00  0.1666667E+00  0.2348779E-16  0.2777778E-01
      1         -3.328559   1.000000
      2         16.644975   0.000000
      3         16.644975   0.000000
      4         18.366967   0.000000
      5         18.440052   0.000000
      6         21.897708   0.000000
 
  0.3333333E+00  0.1666667E+00 -0.1183855E-14  0.1111111E+00
      1         -1.490480   1.000000
      2         10.675960   0.000000
      3         15.489316   0.000000
      4         16.099979   0.000000
      5         18.350105   0.000000
      6         22.611642   0.000000
 
  0.5000000E+00  0.1666667E+00  0.4723839E-14  0.1111111E+00
      1          1.855066   1.000000
      2          5.003370   1.000000
      3         13.795308   0.000000
      4         15.689595   0.000000
      5         18.412823   0.000000
      6         24.438910   0.000000
 
 -0.3333333E+00  0.1666667E+00  0.2668805E-17  0.1111111E+00
      1          0.583290   1.000000
      2          6.741856   1.000000
      3         12.652565   0.000000
      4         17.194435   0.000000
      5         20.080190   0.000000
      6         23.448589   0.000000
 
 -0.1666667E+00  0.1666667E+00 -0.1126022E-14  0.5555556E-01
      1         -2.276447   1.000000
      2         12.533464   0.000000
      3         13.201804   0.000000
      4         19.632669   0.000000
      5         22.989732   0.000000
      6         23.713243   0.000000
 
  0.3333333E+00  0.3333333E+00  0.1551927E-16  0.2777778E-01
      1         -0.185771   1.000000
      2         11.861543   0.000000
      3         13.883616   0.000000
      4         13.883616   0.000000
      5         15.333871   0.000000
      6         17.536985   0.000000
 
  0.5000000E+00  0.3333333E+00 -0.4672037E-14  0.1111111E+00
      1          2.641648   1.000000
      2          8.413817   1.000000
      3          9.081198   1.000000
      4         13.647449   0.000000
      5         16.115621   0.000000
      6         20.887829   0.000000
 
 -0.3333333E+00  0.3333333E+00  0.1296506E-14  0.5555556E-01
      1          3.888952   1.000000
      2          6.600477   1.000000
      3          7.471598   1.000000
      4         14.784719   0.000000
      5         17.436472   0.000000
      6         26.986376   0.000000
 
  0.5000000E+00  0.5000000E+00  0.5005147E-16  0.1388889E-01
      1          4.604453   1.000000
      2          5.327729   1.000000
      3         12.955599   0.000000
      4         12.955599   0.000000
      5         14.290636   0.000000
      6         16.498694   0.000000
 
  0.5000000E+00  0.3333333E+00  0.1666667E+00  0.1111111E+00
      1          0.846536   1.000000
      2          9.582001   0.911656
      3         10.315470   0.000000
      4         13.034531   0.000000
      5         21.513323   0.000000
      6         22.119898   0.000000
 
 -0.3333333E+00  0.3333333E+00  0.1666667E+00  0.1111111E+00
      1          4.370518   1.000000
      2          5.015998   1.000000
      3         10.376459   0.000000
      4         11.194133   0.000000
      5         22.026382   0.000000
      6         23.241529   0.000000
 
 -0.3333333E+00  0.5000000E+00  0.1666667E+00  0.5555556E-01
      1          5.602988   1.000000
      2          6.269853   1.000000
      3          8.590744   1.000000
      4          9.574892   0.926689
      5         20.568080   0.000000
      6         21.453402   0.000000
