       N       E                     dE             d eps       ncg     rms          rms(c)
DAV:   1    -0.480100389551E+01   -0.48010E+01   -0.52114E-01   204   0.389E+00    0.407E-01
DAV:   2    -0.479663510697E+01    0.43688E-02   -0.33395E-03   192   0.583E-01    0.234E-01
DAV:   3    -0.479439847638E+01    0.22366E-02   -0.34018E-03   204   0.341E-01    0.826E-03
DAV:   4    -0.479439475394E+01    0.37224E-05   -0.91779E-06   228   0.320E-02    0.461E-03
DAV:   5    -0.479439139180E+01    0.33621E-05   -0.38916E-07   120   0.428E-03    0.149E-04
DAV:   6    -0.479439142774E+01   -0.35940E-07   -0.14837E-08    96   0.117E-03
   1 F= -.47943914E+01 E0= -.47925866E+01  d E =-.360969E-02
