 vasp.6.3.2 27Jun22 (build Dec 02 2024 22:47:12) complex                        
  
 executed on             LinuxIFC date 2024.12.19  21:27:39
 running on    1 total cores
 distrk:  each k-point on    1 cores,    1 groups
 distr:  one band on NCORE=   1 cores,    1 groups


--------------------------------------------------------------------------------------------------------


 INCAR:
   SYSTEM = DFT Virtual Orbitals Calculation
   ENCUT = 520
   PREC = Accurate
   ISMEAR = 0
   SIGMA = 0.1
   IBRION = -1
   NSW = 0
   EDIFF = 1E-6
   LORBIT = 11
   NEDOS = 1000
   LDAU = .TRUE.
   LDAU_J = 0 0 0
   LDAU_U = 0 0 0

 POTCAR:   PAW_PBE Si 05Jan2001                   
 POTCAR:   PAW_PBE Si 05Jan2001                   
   VRHFIN =Si: s2p2                                                                                 
   LEXCH  = PE                                                                                      
   EATOM  =   103.0669 eV,    7.5752 Ry                                                             
                                                                                                    
   TITEL  = PAW_PBE Si 05Jan2001                                                                    
   LULTRA =        F    use ultrasoft PP ?                                                          
   IUNSCR =        1    unscreen: 0-lin 1-nonlin 2-no                                               
   RPACOR =    1.500    partial core radius                                                         
   POMASS =   28.085; ZVAL   =    4.000    mass and valenz                                          
   RCORE  =    1.900    outmost cutoff radius                                                       
   RWIGS  =    2.480; RWIGS  =    1.312    wigner-seitz radius (au A)                               
   ENMAX  =  245.345; ENMIN  =  184.009 eV                                                          
   ICORE  =        2    local potential                                                             
   LCOR   =        T    correct aug charges                                                         
   LPAW   =        T    paw PP                                                                      
   EAUG   =  322.069                                                                                
   DEXC   =    -.007                                                                                
   RMAX   =    2.944    core radius for proj-oper                                                   
   RAUG   =    1.300    factor for augmentation sphere                                              
   RDEP   =    1.993    radius for radial grids                                                     
   QCUT   =   -4.246; QGAM   =    8.493    optimization parameters                                  
                                                                                                    
   Description                                                                                      
     l     E      TYP  RCUT    TYP  RCUT                                                            
     0   .000     23  1.900                                                                         
     0   .000     23  1.900                                                                         
     1   .000     23  1.900                                                                         
     1   .000     23  1.900                                                                         
     2   .000      7  1.900                                                                         
  local pseudopotential read in
  partial core-charges read in
  atomic valenz-charges read in
  non local Contribution for L=           0  read in
    real space projection operators read in
  non local Contribution for L=           0  read in
    real space projection operators read in
  non local Contribution for L=           1  read in
    real space projection operators read in
  non local Contribution for L=           1  read in
    real space projection operators read in
    PAW grid and wavefunctions read in
 
   number of l-projection  operators is LMAX  =           4
   number of lm-projection operators is LMMAX =           8
 
 PAW_PBE Si 05Jan2001                   :
 energy of atom  1       EATOM= -103.0669
 kinetic energy error for atom=    0.0005 (will be added to EATOM!!)
 
 
 POSCAR: fcc Si:
  positions in cartesian coordinates
  No initial velocities read in
 exchange correlation table for  LEXCH =        8
   RHO(1)=    0.500       N(1)  =     2000
   RHO(2)=  100.500       N(2)  =     4000
 


--------------------------------------------------------------------------------------------------------


 ion  position               nearest neighbor table
   1  0.000  0.000  0.000-
 
  LATTYP: Found a face centered cubic cell.
 ALAT       =     3.9000000000
  
  Lattice vectors:
  
 A1 = (   1.9500000000,   1.9500000000,   0.0000000000)
 A2 = (   0.0000000000,   1.9500000000,   1.9500000000)
 A3 = (   1.9500000000,   0.0000000000,   1.9500000000)


Analysis of symmetry for initial positions (statically):
=====================================================================
 Subroutine PRICEL returns:
 Original cell was already a primitive cell.
 

 Routine SETGRP: Setting up the symmetry group for a 
 face centered cubic supercell.


 Subroutine GETGRP returns: Found 48 space group operations
 (whereof 48 operations were pure point group operations)
 out of a pool of 48 trial point group operations.


The static configuration has the point symmetry O_h .


Analysis of symmetry for dynamics (positions and initial velocities):
=====================================================================
 Subroutine PRICEL returns:
 Original cell was already a primitive cell.
 

 Routine SETGRP: Setting up the symmetry group for a 
 face centered cubic supercell.


 Subroutine GETGRP returns: Found 48 space group operations
 (whereof 48 operations were pure point group operations)
 out of a pool of 48 trial point group operations.


The dynamic configuration has the point symmetry O_h .


 Subroutine INISYM returns: Found 48 space group operations
 (whereof 48 operations are pure point group operations),
 and found     1 'primitive' translations


----------------------------------------------------------------------------------------

                                     Primitive cell                                     

  volume of cell :      14.8297

  direct lattice vectors                    reciprocal lattice vectors
     1.950000000  1.950000000  0.000000000     0.256410256  0.256410256 -0.256410256
     0.000000000  1.950000000  1.950000000    -0.256410256  0.256410256  0.256410256
     1.950000000  0.000000000  1.950000000     0.256410256 -0.256410256  0.256410256

  length of vectors
     2.757716447  2.757716447  2.757716447     0.444115592  0.444115592  0.444115592

  position of ions in fractional coordinates (direct lattice)
     0.000000000  0.000000000  0.000000000

  ion indices of the primitive-cell ions
   primitive index   ion index
                 1           1

----------------------------------------------------------------------------------------

 
 -----------------------------------------------------------------------------
|                                                                             |
|           W    W    AA    RRRRR   N    N  II  N    N   GGGG   !!!           |
|           W    W   A  A   R    R  NN   N  II  NN   N  G    G  !!!           |
|           W    W  A    A  R    R  N N  N  II  N N  N  G       !!!           |
|           W WW W  AAAAAA  RRRRR   N  N N  II  N  N N  G  GGG   !            |
|           WW  WW  A    A  R   R   N   NN  II  N   NN  G    G                |
|           W    W  A    A  R    R  N    N  II  N    N   GGGG   !!!           |
|                                                                             |
|     The requested file  could not be found or opened for reading            |
|     k-point information. Automatic k-point generation is used as a          |
|     fallback, which may lead to unwanted results.                           |
|                                                                             |
 -----------------------------------------------------------------------------

 

Automatic generation of k-mesh.
 Grid dimensions derived from KSPACING:
 generate k-points for:    6    6    6

 Generating k-lattice:

  Cartesian coordinates                     Fractional coordinates (reciprocal lattice)
     0.042735043  0.042735043 -0.042735043     0.166666667 -0.000000000 -0.000000000
    -0.042735043  0.042735043  0.042735043    -0.000000000  0.166666667  0.000000000
     0.042735043 -0.042735043  0.042735043     0.000000000  0.000000000  0.166666667

  Length of vectors
     0.074019265  0.074019265  0.074019265

  Shift w.r.t. Gamma in fractional coordinates (k-lattice)
     0.000000000  0.000000000  0.000000000

 
 Subroutine IBZKPT returns following result:
 ===========================================
 
 Found     16 irreducible k-points:
 
 Following reciprocal coordinates:
            Coordinates               Weight
  0.000000  0.000000  0.000000      1.000000
  0.166667  0.000000 -0.000000      8.000000
  0.333333  0.000000  0.000000      8.000000
  0.500000 -0.000000 -0.000000      4.000000
  0.166667  0.166667  0.000000      6.000000
  0.333333  0.166667 -0.000000     24.000000
  0.500000  0.166667  0.000000     24.000000
 -0.333333  0.166667  0.000000     24.000000
 -0.166667  0.166667 -0.000000     12.000000
  0.333333  0.333333  0.000000      6.000000
  0.500000  0.333333 -0.000000     24.000000
 -0.333333  0.333333  0.000000     12.000000
  0.500000  0.500000  0.000000      3.000000
  0.500000  0.333333  0.166667     24.000000
 -0.333333  0.333333  0.166667     24.000000
 -0.333333  0.500000  0.166667     12.000000
 
 Following cartesian coordinates:
            Coordinates               Weight
  0.000000  0.000000  0.000000      1.000000
  0.166667  0.166667 -0.166667      8.000000
  0.333333  0.333333 -0.333333      8.000000
  0.500000  0.500000 -0.500000      4.000000
  0.000000  0.333333  0.000000      6.000000
  0.166667  0.500000 -0.166667     24.000000
  0.333333  0.666667 -0.333333     24.000000
 -0.500000 -0.166667  0.500000     24.000000
 -0.333333  0.000000  0.333333     12.000000
  0.000000  0.666667  0.000000      6.000000
  0.166667  0.833333 -0.166667     24.000000
 -0.666667 -0.000000  0.666667     12.000000
 -0.000000  1.000000  0.000000      3.000000
  0.333333  0.666667  0.000000     24.000000
 -0.500000 -0.166667  0.833333     24.000000
 -0.666667 -0.000000  1.000000     12.000000
 


--------------------------------------------------------------------------------------------------------




 Dimension of arrays:
   k-points           NKPTS =     16   k-points in BZ     NKDIM =     16   number of bands    NBANDS=      6
   number of dos      NEDOS =   1000   number of ions     NIONS =      1
   non local maximal  LDIM  =      4   non local SUM 2l+1 LMDIM =      8
   total plane-waves  NPLWV =  13824
   max r-space proj   IRMAX =      1   max aug-charges    IRDMAX=  31363
   dimension x,y,z NGX =    24 NGY =   24 NGZ =   24
   dimension x,y,z NGXF=    48 NGYF=   48 NGZF=   48
   support grid    NGXF=    48 NGYF=   48 NGZF=   48
   ions per type =               1
   NGX,Y,Z   is equivalent  to a cutoff of  14.47, 14.47, 14.47 a.u.
   NGXF,Y,Z  is equivalent  to a cutoff of  28.94, 28.94, 28.94 a.u.

 SYSTEM =  DFT Virtual Orbitals Calculation        
 POSCAR =  fcc Si:                                 

 Startparameter for this run:
   NWRITE =      2    write-flag & timer
   PREC   = accura    normal or accurate (medium, high low for compatibility)
   ISTART =      1    job   : 0-new  1-cont  2-samecut
   ICHARG =      0    charge: 1-file 2-atom 10-const
   ISPIN  =      1    spin polarized calculation?
   LNONCOLLINEAR =      F non collinear calculations
   LSORBIT =      F    spin-orbit coupling
   INIWAV =      1    electr: 0-lowe 1-rand  2-diag
   LASPH  =      F    aspherical Exc in radial PAW
 Electronic Relaxation 1
   ENCUT  =  520.0 eV  38.22 Ry    6.18 a.u.   5.13  5.13  5.13*2*pi/ulx,y,z
   ENINI  =  520.0     initial cutoff
   ENAUG  =  322.1 eV  augmentation charge cutoff
   NELM   =     60;   NELMIN=  2; NELMDL=  0     # of ELM steps 
   EDIFF  = 0.1E-05   stopping-criterion for ELM
   LREAL  =      F    real-space projection
   NLSPLINE    = F    spline interpolate recip. space projectors
   LCOMPAT=      F    compatible to vasp.4.4
   GGA_COMPAT  = T    GGA compatible to vasp.4.4-vasp.4.6
   LMAXPAW     = -100 max onsite density
   LMAXMIX     =    2 max onsite mixed and CHGCAR
   VOSKOWN=      0    Vosko Wilk Nusair interpolation
   ROPT   =    0.00000
 Ionic relaxation
   EDIFFG = 0.1E-04   stopping-criterion for IOM
   NSW    =      0    number of steps for IOM
   NBLOCK =      1;   KBLOCK =      1    inner block; outer block 
   IBRION =     -1    ionic relax: 0-MD 1-quasi-New 2-CG
   NFREE  =      0    steps in history (QN), initial steepest desc. (CG)
   ISIF   =      2    stress and relaxation
   IWAVPR =     10    prediction:  0-non 1-charg 2-wave 3-comb
   ISYM   =      2    0-nonsym 1-usesym 2-fastsym
   LCORR  =      T    Harris-Foulkes like correction to forces

   POTIM  = 0.5000    time-step for ionic-motion
   TEIN   =    0.0    initial temperature
   TEBEG  =    0.0;   TEEND  =   0.0 temperature during run
   SMASS  =  -3.00    Nose mass-parameter (am)
   estimated Nose-frequenzy (Omega)   =  0.10E-29 period in steps = 0.13E+47 mass=  -0.174E-27a.u.
   SCALEE = 1.0000    scale energy and forces
   NPACO  =    256;   APACO  = 10.0  distance and # of slots for P.C.
   PSTRESS=    0.0 pullay stress

  Mass of Ions in am
   POMASS =  28.09
  Ionic Valenz
   ZVAL   =   4.00
  Atomic Wigner-Seitz radii
   RWIGS  =  -1.00
  virtual crystal weights 
   VCA    =   1.00
   NELECT =       4.0000    total number of electrons
   NUPDOWN=      -1.0000    fix difference up-down

 DOS related values:
   EMIN   =  10.00;   EMAX   =-10.00  energy-range for DOS
   EFERMI =   0.00
   ISMEAR =     0;   SIGMA  =   0.10  broadening in eV -4-tet -1-fermi 0-gaus

 Electronic relaxation 2 (details)
   IALGO  =     38    algorithm
   LDIAG  =      T    sub-space diagonalisation (order eigenvalues)
   LSUBROT=      F    optimize rotation matrix (better conditioning)
   TURBO    =      0    0=normal 1=particle mesh
   IRESTART =      0    0=no restart 2=restart with 2 vectors
   NREBOOT  =      0    no. of reboots
   NMIN     =      0    reboot dimension
   EREF     =   0.00    reference energy to select bands
   IMIX   =      4    mixing-type and parameters
     AMIX     =   0.40;   BMIX     =  1.00
     AMIX_MAG =   1.60;   BMIX_MAG =  1.00
     AMIN     =   0.10
     WC   =   100.;   INIMIX=   1;  MIXPRE=   1;  MAXMIX= -45

 Intra band minimization:
   WEIMIN = 0.0000     energy-eigenvalue tresh-hold
   EBREAK =  0.42E-07  absolut break condition
   DEPER  =   0.30     relativ break condition  

   TIME   =   0.40     timestep for ELM

  volume/ion in A,a.u.               =      14.83       100.08
  Fermi-wavevector in a.u.,A,eV,Ry     =   1.057751  1.998860 15.222711  1.118838
  Thomas-Fermi vector in A             =   2.193036
 
 Write flags
   LWAVE        =      T    write WAVECAR
   LDOWNSAMPLE  =      F    k-point downsampling of WAVECAR
   LCHARG       =      T    write CHGCAR
   LVTOT        =      F    write LOCPOT, total local potential
   LVHAR        =      F    write LOCPOT, Hartree potential only
   LELF         =      F    write electronic localiz. function (ELF)
   LORBIT       =     11    0 simple, 1 ext, 2 COOP (PROOUT), +10 PAW based schemes


 Dipole corrections
   LMONO  =      F    monopole corrections only (constant potential shift)
   LDIPOL =      F    correct potential (dipole corrections)
   IDIPOL =      0    1-x, 2-y, 3-z, 4-all directions 
   EPSILON=  1.0000000 bulk dielectric constant

 LDA+U is selected, type is set to LDAUTYPE =  2
   angular momentum for each species LDAUL =     2
   U (eV)           for each species LDAUU =   0.0
   J (eV)           for each species LDAUJ =   0.0
 Exchange correlation treatment:
   GGA     =    --    GGA type
   LEXCH   =     8    internal setting for exchange type
   LIBXC   =     F    Libxc                    
   VOSKOWN =     0    Vosko Wilk Nusair interpolation
   LHFCALC =     F    Hartree Fock is set to
   LHFONE  =     F    Hartree Fock one center treatment
   AEXX    =    0.0000 exact exchange contribution

 Linear response parameters
   LEPSILON=     F    determine dielectric tensor
   LRPA    =     F    only Hartree local field effects (RPA)
   LNABLA  =     F    use nabla operator in PAW spheres
   LVEL    =     F    velocity operator in full k-point grid
   CSHIFT  =0.1000    complex shift for real part using Kramers Kronig
   OMEGAMAX=  -1.0    maximum frequency
   DEG_THRESHOLD= 0.2000000E-02 threshold for treating states as degnerate
   RTIME   =   -0.100 relaxation time in fs
  (WPLASMAI=    0.000 imaginary part of plasma frequency in eV, 0.658/RTIME)
   DFIELD  = 0.0000000 0.0000000 0.0000000 field for delta impulse in time
 
  Optional k-point grid parameters
   LKPOINTS_OPT  =     F    use optional k-point grid
   KPOINTS_OPT_MODE=     1    mode for optional k-point grid
 
 Orbital magnetization related:
   ORBITALMAG=     F  switch on orbital magnetization
   LCHIMAG   =     F  perturbation theory with respect to B field
   DQ        =  0.001000  dq finite difference perturbation B field
   LLRAUG    =     F  two centre corrections for induced B field



--------------------------------------------------------------------------------------------------------


 Static calculation
 charge density and potential will be updated during run
 non-spin polarized calculation
 Variant of blocked Davidson
 Davidson routine will perform the subspace rotation
 perform sub-space diagonalisation
    after iterative eigenvector-optimisation
 modified Broyden-mixing scheme, WC =      100.0
 initial mixing is a Kerker type mixing with AMIX =  0.4000 and BMIX =      1.0000
 Hartree-type preconditioning will be used
 using additional bands            4
 reciprocal scheme for non local part
 use partial core corrections
 calculate Harris-corrections to forces 
   (improved forces if not selfconsistent)
 use gradient corrections 
 use of overlap-Matrix (Vanderbilt PP)
 Gauss-broadening in eV      SIGMA  =   0.10


--------------------------------------------------------------------------------------------------------


  energy-cutoff  :      520.00
  volume of cell :       14.83
      direct lattice vectors                 reciprocal lattice vectors
     1.950000000  1.950000000  0.000000000     0.256410256  0.256410256 -0.256410256
     0.000000000  1.950000000  1.950000000    -0.256410256  0.256410256  0.256410256
     1.950000000  0.000000000  1.950000000     0.256410256 -0.256410256  0.256410256

  length of vectors
     2.757716447  2.757716447  2.757716447     0.444115592  0.444115592  0.444115592


 
 old parameters found on file WAVECAR:
  energy-cutoff  :      520.00
  volume of cell :       14.83
      direct lattice vectors                 reciprocal lattice vectors
     1.950000000  1.950000000  0.000000000     0.256410256  0.256410256 -0.256410256
     0.000000000  1.950000000  1.950000000    -0.256410256  0.256410256  0.256410256
     1.950000000  0.000000000  1.950000000     0.256410256 -0.256410256  0.256410256

  length of vectors

 
 k-points in units of 2pi/SCALE and weight: read from INCAR                         
   0.00000000  0.00000000  0.00000000       0.005
   0.16666667  0.16666667 -0.16666667       0.037
   0.33333333  0.33333333 -0.33333333       0.037
   0.50000000  0.50000000 -0.50000000       0.019
   0.00000000  0.33333333  0.00000000       0.028
   0.16666667  0.50000000 -0.16666667       0.111
   0.33333333  0.66666667 -0.33333333       0.111
  -0.50000000 -0.16666667  0.50000000       0.111
  -0.33333333  0.00000000  0.33333333       0.056
   0.00000000  0.66666667  0.00000000       0.028
   0.16666667  0.83333333 -0.16666667       0.111
  -0.66666667 -0.00000000  0.66666667       0.056
   0.00000000  1.00000000 -0.00000000       0.014
   0.33333333  0.66666667  0.00000000       0.111
  -0.50000000 -0.16666667  0.83333333       0.111
  -0.66666667 -0.00000000  1.00000000       0.056
 
 k-points in reciprocal lattice and weights: read from INCAR                         
   0.00000000  0.00000000  0.00000000       0.005
   0.16666667  0.00000000 -0.00000000       0.037
   0.33333333  0.00000000  0.00000000       0.037
   0.50000000 -0.00000000 -0.00000000       0.019
   0.16666667  0.16666667  0.00000000       0.028
   0.33333333  0.16666667 -0.00000000       0.111
   0.50000000  0.16666667  0.00000000       0.111
  -0.33333333  0.16666667  0.00000000       0.111
  -0.16666667  0.16666667 -0.00000000       0.056
   0.33333333  0.33333333  0.00000000       0.028
   0.50000000  0.33333333 -0.00000000       0.111
  -0.33333333  0.33333333  0.00000000       0.056
   0.50000000  0.50000000  0.00000000       0.014
   0.50000000  0.33333333  0.16666667       0.111
  -0.33333333  0.33333333  0.16666667       0.111
  -0.33333333  0.50000000  0.16666667       0.056
 
 position of ions in fractional coordinates (direct lattice) 
   0.00000000  0.00000000  0.00000000
 
 position of ions in cartesian coordinates  (Angst):
   0.00000000  0.00000000  0.00000000
 


--------------------------------------------------------------------------------------------------------


 k-point   1 :   0.0000 0.0000 0.0000  plane waves:     411
 k-point   2 :   0.1667 0.0000-0.0000  plane waves:     387
 k-point   3 :   0.3333 0.0000 0.0000  plane waves:     401
 k-point   4 :   0.5000-0.0000-0.0000  plane waves:     392
 k-point   5 :   0.1667 0.1667 0.0000  plane waves:     399
 k-point   6 :   0.3333 0.1667-0.0000  plane waves:     398
 k-point   7 :   0.5000 0.1667 0.0000  plane waves:     393
 k-point   8 :  -0.3333 0.1667 0.0000  plane waves:     404
 k-point   9 :  -0.1667 0.1667-0.0000  plane waves:     397
 k-point  10 :   0.3333 0.3333 0.0000  plane waves:     399
 k-point  11 :   0.5000 0.3333-0.0000  plane waves:     402
 k-point  12 :  -0.3333 0.3333 0.0000  plane waves:     403
 k-point  13 :   0.5000 0.5000 0.0000  plane waves:     388
 k-point  14 :   0.5000 0.3333 0.1667  plane waves:     407
 k-point  15 :  -0.3333 0.3333 0.1667  plane waves:     400
 k-point  16 :  -0.3333 0.5000 0.1667  plane waves:     398

 maximum and minimum number of plane-waves per node :       411      387

 maximum number of plane-waves:       411
 maximum index in each direction: 
   IXMAX=    5   IYMAX=    5   IZMAX=    5
   IXMIN=   -5   IYMIN=   -5   IZMIN=   -5


 serial   3D FFT for wavefunctions
 parallel 3D FFT for charge:
    minimum data exchange during FFTs selected (reduces bandwidth)


 total amount of memory used by VASP MPI-rank0    41007. kBytes
=======================================================================

   base      :      30000. kBytes
   nonl-proj :        427. kBytes
   fftplans  :       3916. kBytes
   grid      :       6018. kBytes
   one-center:          3. kBytes
   wavefun   :        643. kBytes
 
     INWAV:  cpu time      0.0034: real time      0.0039
 Broyden mixing: mesh for mixing (old mesh)
   NGX = 11   NGY = 11   NGZ = 11
  (NGX  = 48   NGY  = 48   NGZ  = 48)
  gives a total of   1331 points

 charge density for first step will be calculated from the start-wavefunctions


--------------------------------------------------------------------------------------------------------


 Maximum index for augmentation-charges        30117 (set IRDMAX)


--------------------------------------------------------------------------------------------------------


 initial charge from wavefunction
 First call to EWALD:  gamma=   0.721
 Maximum number of real-space cells 3x 3x 3
 Maximum number of reciprocal cells 3x 3x 3

    FEWALD:  cpu time      0.0004: real time      0.0004


--------------------------------------- Iteration      1(   1)  ---------------------------------------


    POTLOK:  cpu time      0.0354: real time      0.0449
    SETDIJ:  cpu time      0.0026: real time      0.0026
     EDDAV:  cpu time      0.0410: real time      0.0453
       DOS:  cpu time      0.0002: real time      0.0002
    CHARGE:  cpu time      0.0047: real time      0.0047
    MIXING:  cpu time      0.0013: real time      0.0041
    --------------------------------------------
      LOOP:  cpu time      0.0852: real time      0.1019

 eigenvalue-minimisations  :   204
 total energy-change (2. order) :-0.4801004E+01  (-0.5211437E-01)
 number of electron       4.0000000 magnetization 
 augmentation part       -0.2426848 magnetization 

 Broyden mixing:
  rms(total) = 0.40715E-01    rms(broyden)= 0.40715E-01
  rms(prec ) = 0.16161E+00
  weight for this iteration     100.00

 Free energy of the ion-electron system (eV)
  ---------------------------------------------------
  alpha Z        PSCENC =         2.26996938
  Ewald energy   TEWEN  =      -135.42777035
  -Hartree energ DENC   =        -0.38025991
  -exchange      EXHF   =         0.00000000
  -V(xc)+E(xc)   XCENC  =        -8.81427991
  PAW double counting   =        31.94089752      -14.28870291
  entropy T*S    EENTRO =        -0.00360822
  eigenvalues    EBANDS =        16.83639914
  atomic energy  EATOM  =       103.06635137
  Solvation  Ediel_sol  =         0.00000000
  ---------------------------------------------------
  free energy    TOTEN  =        -4.80100390 eV

  energy without entropy =       -4.79739567  energy(sigma->0) =       -4.79919979


--------------------------------------------------------------------------------------------------------




--------------------------------------- Iteration      1(   2)  ---------------------------------------


    POTLOK:  cpu time      0.0254: real time      0.0302
    SETDIJ:  cpu time      0.0019: real time      0.0019
     EDDAV:  cpu time      0.0311: real time      0.0593
       DOS:  cpu time      0.0003: real time      0.0003
    CHARGE:  cpu time      0.0045: real time      0.0113
    MIXING:  cpu time      0.0011: real time      0.0011
    --------------------------------------------
      LOOP:  cpu time      0.0643: real time      0.1041

 eigenvalue-minimisations  :   192
 total energy-change (2. order) : 0.4368789E-02  (-0.3339530E-03)
 number of electron       4.0000000 magnetization 
 augmentation part       -0.2419042 magnetization 

 Broyden mixing:
  rms(total) = 0.23418E-01    rms(broyden)= 0.23418E-01
  rms(prec ) = 0.93943E-01
  weight for this iteration     100.00

 eigenvalues of (default mixing * dielectric matrix)
  average eigenvalue GAMMA=   2.3380
  2.3380

 Free energy of the ion-electron system (eV)
  ---------------------------------------------------
  alpha Z        PSCENC =         2.26996938
  Ewald energy   TEWEN  =      -135.42777035
  -Hartree energ DENC   =        -0.41315084
  -exchange      EXHF   =         0.00000000
  -V(xc)+E(xc)   XCENC  =        -8.81770960
  PAW double counting   =        32.49239301      -14.86324725
  entropy T*S    EENTRO =        -0.00360877
  eigenvalues    EBANDS =        16.90013795
  atomic energy  EATOM  =       103.06635137
  Solvation  Ediel_sol  =         0.00000000
  ---------------------------------------------------
  free energy    TOTEN  =        -4.79663511 eV

  energy without entropy =       -4.79302634  energy(sigma->0) =       -4.79483072


--------------------------------------------------------------------------------------------------------




--------------------------------------- Iteration      1(   3)  ---------------------------------------


    POTLOK:  cpu time      0.0249: real time      0.0258
    SETDIJ:  cpu time      0.0019: real time      0.0019
     EDDAV:  cpu time      0.0316: real time      0.0366
       DOS:  cpu time      0.0002: real time      0.0002
    CHARGE:  cpu time      0.0043: real time      0.0043
    MIXING:  cpu time      0.0014: real time      0.0035
    --------------------------------------------
      LOOP:  cpu time      0.0644: real time      0.0723

 eigenvalue-minimisations  :   204
 total energy-change (2. order) : 0.2236631E-02  (-0.3401792E-03)
 number of electron       4.0000000 magnetization 
 augmentation part       -0.2400116 magnetization 

 Broyden mixing:
  rms(total) = 0.82566E-03    rms(broyden)= 0.82566E-03
  rms(prec ) = 0.16690E-02
  weight for this iteration     100.00

 eigenvalues of (default mixing * dielectric matrix)
  average eigenvalue GAMMA=   1.7207
  1.0590  2.3825

 Free energy of the ion-electron system (eV)
  ---------------------------------------------------
  alpha Z        PSCENC =         2.26996938
  Ewald energy   TEWEN  =      -135.42777035
  -Hartree energ DENC   =        -0.46415143
  -exchange      EXHF   =         0.00000000
  -V(xc)+E(xc)   XCENC  =        -8.82305378
  PAW double counting   =        33.19266199      -15.59326824
  entropy T*S    EENTRO =        -0.00360961
  eigenvalues    EBANDS =        16.98847220
  atomic energy  EATOM  =       103.06635137
  Solvation  Ediel_sol  =         0.00000000
  ---------------------------------------------------
  free energy    TOTEN  =        -4.79439848 eV

  energy without entropy =       -4.79078887  energy(sigma->0) =       -4.79259367


--------------------------------------------------------------------------------------------------------




--------------------------------------- Iteration      1(   4)  ---------------------------------------


    POTLOK:  cpu time      0.0249: real time      0.0309
    SETDIJ:  cpu time      0.0021: real time      0.0217
     EDDAV:  cpu time      0.0345: real time      0.0345
       DOS:  cpu time      0.0002: real time      0.0002
    CHARGE:  cpu time      0.0047: real time      0.0085
    MIXING:  cpu time      0.0011: real time      0.0055
    --------------------------------------------
      LOOP:  cpu time      0.0676: real time      0.1045

 eigenvalue-minimisations  :   228
 total energy-change (2. order) : 0.3722438E-05  (-0.9177943E-06)
 number of electron       4.0000000 magnetization 
 augmentation part       -0.2399838 magnetization 

 Broyden mixing:
  rms(total) = 0.46073E-03    rms(broyden)= 0.46073E-03
  rms(prec ) = 0.85064E-03
  weight for this iteration     100.00

 eigenvalues of (default mixing * dielectric matrix)
  average eigenvalue GAMMA=   1.9765
  1.0396  2.2961  2.5938

 Free energy of the ion-electron system (eV)
  ---------------------------------------------------
  alpha Z        PSCENC =         2.26996938
  Ewald energy   TEWEN  =      -135.42777035
  -Hartree energ DENC   =        -0.46428905
  -exchange      EXHF   =         0.00000000
  -V(xc)+E(xc)   XCENC  =        -8.82330098
  PAW double counting   =        33.17502657      -15.57434672
  entropy T*S    EENTRO =        -0.00360965
  eigenvalues    EBANDS =        16.98757468
  atomic energy  EATOM  =       103.06635137
  Solvation  Ediel_sol  =         0.00000000
  ---------------------------------------------------
  free energy    TOTEN  =        -4.79439475 eV

  energy without entropy =       -4.79078511  energy(sigma->0) =       -4.79258993


--------------------------------------------------------------------------------------------------------




--------------------------------------- Iteration      1(   5)  ---------------------------------------


    POTLOK:  cpu time      0.0242: real time      0.0273
    SETDIJ:  cpu time      0.0019: real time      0.0019
     EDDAV:  cpu time      0.0225: real time      0.0246
       DOS:  cpu time      0.0002: real time      0.0002
    CHARGE:  cpu time      0.0043: real time      0.0081
    MIXING:  cpu time      0.0010: real time      0.0010
    --------------------------------------------
      LOOP:  cpu time      0.0540: real time      0.0599

 eigenvalue-minimisations  :   120
 total energy-change (2. order) : 0.3362141E-05  (-0.3891615E-07)
 number of electron       4.0000000 magnetization 
 augmentation part       -0.2399898 magnetization 

 Broyden mixing:
  rms(total) = 0.14898E-04    rms(broyden)= 0.14898E-04
  rms(prec ) = 0.40578E-04
  weight for this iteration     100.00

 eigenvalues of (default mixing * dielectric matrix)
  average eigenvalue GAMMA=   1.7523
  2.3234  2.6181  0.9798  1.0878

 Free energy of the ion-electron system (eV)
  ---------------------------------------------------
  alpha Z        PSCENC =         2.26996938
  Ewald energy   TEWEN  =      -135.42777035
  -Hartree energ DENC   =        -0.46409390
  -exchange      EXHF   =         0.00000000
  -V(xc)+E(xc)   XCENC  =        -8.82352125
  PAW double counting   =        33.15265911      -15.55022903
  entropy T*S    EENTRO =        -0.00360969
  eigenvalues    EBANDS =        16.98585298
  atomic energy  EATOM  =       103.06635137
  Solvation  Ediel_sol  =         0.00000000
  ---------------------------------------------------
  free energy    TOTEN  =        -4.79439139 eV

  energy without entropy =       -4.79078170  energy(sigma->0) =       -4.79258654


--------------------------------------------------------------------------------------------------------




--------------------------------------- Iteration      1(   6)  ---------------------------------------


    POTLOK:  cpu time      0.0240: real time      0.0280
    SETDIJ:  cpu time      0.0020: real time      0.0100
     EDDAV:  cpu time      0.0198: real time      0.0198
       DOS:  cpu time      0.0002: real time      0.0002
    --------------------------------------------
      LOOP:  cpu time      0.0461: real time      0.0635

 eigenvalue-minimisations  :    96
 total energy-change (2. order) :-0.3594000E-07  (-0.1483688E-08)
 number of electron       4.0000000 magnetization 
 augmentation part       -0.2399898 magnetization 

 Free energy of the ion-electron system (eV)
  ---------------------------------------------------
  alpha Z        PSCENC =         2.26996938
  Ewald energy   TEWEN  =      -135.42777035
  -Hartree energ DENC   =        -0.46408330
  -exchange      EXHF   =         0.00000000
  -V(xc)+E(xc)   XCENC  =        -8.82350906
  PAW double counting   =        33.15329264      -15.55089186
  entropy T*S    EENTRO =        -0.00360969
  eigenvalues    EBANDS =        16.98585946
  atomic energy  EATOM  =       103.06635137
  Solvation  Ediel_sol  =         0.00000000
  ---------------------------------------------------
  free energy    TOTEN  =        -4.79439143 eV

  energy without entropy =       -4.79078173  energy(sigma->0) =       -4.79258658


--------------------------------------------------------------------------------------------------------




 average (electrostatic) potential at core
  the test charge radii are     0.9892
  (the norm of the test charge is              1.0000)
       1 -80.3477
 
 
 
 E-fermi :   9.6775     XC(G=0): -11.1012     alpha+bet :-16.1732

 Fermi energy:         9.6775329467

 k-point     1 :       0.0000    0.0000    0.0000
  band No.  band energies     occupation 
      1      -4.3869      2.00000
      2      20.6705      0.00000
      3      20.6705      0.00000
      4      20.6705      0.00000
      5      21.6755      0.00000
      6      21.6755      0.00000

 k-point     2 :       0.1667    0.0000   -0.0000
  band No.  band energies     occupation 
      1      -3.5928      2.00000
      2      14.5070      0.00000
      3      19.0409      0.00000
      4      19.0409      0.00000
      5      22.8583      0.00000
      6      23.7706      0.00000

 k-point     3 :       0.3333    0.0000    0.0000
  band No.  band energies     occupation 
      1      -1.2319      2.00000
      2       7.9959      2.00000
      3      18.2025      0.00000
      4      18.2025      0.00000
      5      21.8887      0.00000
      6      21.8887      0.00000

 k-point     4 :       0.5000   -0.0000   -0.0000
  band No.  band energies     occupation 
      1       2.2927      2.00000
      2       3.0491      2.00000
      3      18.1660      0.00000
      4      18.1660      0.00000
      5      20.6201      0.00000
      6      20.6201      0.00000

 k-point     5 :       0.1667    0.1667    0.0000
  band No.  band energies     occupation 
      1      -3.3286      2.00000
      2      16.6450      0.00000
      3      16.6450      0.00000
      4      18.3670      0.00000
      5      18.4401      0.00000
      6      21.8977      0.00000

 k-point     6 :       0.3333    0.1667   -0.0000
  band No.  band energies     occupation 
      1      -1.4905      2.00000
      2      10.6760      0.00000
      3      15.4893      0.00000
      4      16.1000      0.00000
      5      18.3501      0.00000
      6      22.6116      0.00000

 k-point     7 :       0.5000    0.1667    0.0000
  band No.  band energies     occupation 
      1       1.8551      2.00000
      2       5.0034      2.00000
      3      13.7953      0.00000
      4      15.6896      0.00000
      5      18.4128      0.00000
      6      24.4389      0.00000

 k-point     8 :      -0.3333    0.1667    0.0000
  band No.  band energies     occupation 
      1       0.5833      2.00000
      2       6.7419      2.00000
      3      12.6526      0.00000
      4      17.1944      0.00000
      5      20.0802      0.00000
      6      23.4486      0.00000

 k-point     9 :      -0.1667    0.1667   -0.0000
  band No.  band energies     occupation 
      1      -2.2764      2.00000
      2      12.5335      0.00000
      3      13.2018      0.00000
      4      19.6327      0.00000
      5      22.9897      0.00000
      6      23.7132      0.00000

 k-point    10 :       0.3333    0.3333    0.0000
  band No.  band energies     occupation 
      1      -0.1858      2.00000
      2      11.8615      0.00000
      3      13.8836      0.00000
      4      13.8836      0.00000
      5      15.3339      0.00000
      6      17.5370      0.00000

 k-point    11 :       0.5000    0.3333   -0.0000
  band No.  band energies     occupation 
      1       2.6416      2.00000
      2       8.4138      2.00000
      3       9.0812      2.00000
      4      13.6474      0.00000
      5      16.1156      0.00000
      6      20.8878      0.00000

 k-point    12 :      -0.3333    0.3333    0.0000
  band No.  band energies     occupation 
      1       3.8890      2.00000
      2       6.6005      2.00000
      3       7.4716      2.00000
      4      14.7847      0.00000
      5      17.4365      0.00000
      6      26.9864      0.00000

 k-point    13 :       0.5000    0.5000    0.0000
  band No.  band energies     occupation 
      1       4.6045      2.00000
      2       5.3277      2.00000
      3      12.9556      0.00000
      4      12.9556      0.00000
      5      14.2906      0.00000
      6      16.4987      0.00000

 k-point    14 :       0.5000    0.3333    0.1667
  band No.  band energies     occupation 
      1       0.8465      2.00000
      2       9.5820      1.82331
      3      10.3155      0.00000
      4      13.0345      0.00000
      5      21.5133      0.00000
      6      22.1199      0.00000

 k-point    15 :      -0.3333    0.3333    0.1667
  band No.  band energies     occupation 
      1       4.3705      2.00000
      2       5.0160      2.00000
      3      10.3765      0.00000
      4      11.1941      0.00000
      5      22.0264      0.00000
      6      23.2415      0.00000

 k-point    16 :      -0.3333    0.5000    0.1667
  band No.  band energies     occupation 
      1       5.6030      2.00000
      2       6.2699      2.00000
      3       8.5907      2.00000
      4       9.5749      1.85338
      5      20.5681      0.00000
      6      21.4534      0.00000


--------------------------------------------------------------------------------------------------------


 soft charge-density along one line, spin component           1
         0         1         2         3         4         5         6         7         8         9
 total charge-density along one line
 
 pseudopotential strength for first ion, spin component:           1
 18.011  -0.003  -0.000   0.000   0.000   0.000  -0.000  -0.000
 -0.003   0.005   0.000  -0.000  -0.000  -0.000   0.000   0.000
 -0.000   0.000   4.100  -0.000  -0.000  -0.006   0.000   0.000
  0.000  -0.000  -0.000   4.100  -0.000   0.000  -0.006   0.000
  0.000  -0.000  -0.000  -0.000   4.100   0.000   0.000  -0.006
  0.000  -0.000  -0.006   0.000   0.000   0.005  -0.000  -0.000
 -0.000   0.000   0.000  -0.006   0.000  -0.000   0.005  -0.000
 -0.000   0.000   0.000   0.000  -0.006  -0.000  -0.000   0.005
 total augmentation occupancy for first ion, spin component:           1
  1.689  -0.209   0.000   0.000   0.000   0.000   0.000   0.000
 -0.209   0.949   0.000   0.000   0.000   0.000   0.000   0.000
  0.000   0.000   0.767  -0.000   0.000  -0.394  -0.000   0.000
  0.000   0.000  -0.000   0.767  -0.000   0.000  -0.394   0.000
  0.000   0.000   0.000  -0.000   0.767   0.000   0.000  -0.394
  0.000   0.000  -0.394   0.000   0.000   0.297  -0.000   0.000
  0.000   0.000   0.000  -0.394   0.000   0.000   0.297   0.000
  0.000   0.000  -0.000   0.000  -0.394  -0.000   0.000   0.297


------------------------ aborting loop because EDIFF is reached ----------------------------------------





 total charge

# of ion       s       p       d       tot
------------------------------------------
    1        0.813   0.697   0.000   1.511
 
    CHARGE:  cpu time      0.0044: real time      0.0044
    FORLOC:  cpu time      0.0011: real time      0.0011
    FORNL :  cpu time      0.0065: real time      0.0065
    STRESS:  cpu time      0.0300: real time      0.0300
    FORCOR:  cpu time      0.0249: real time      0.0249
    FORHAR:  cpu time      0.0065: real time      0.0065
    MIXING:  cpu time      0.0011: real time      0.0011
    OFIELD:  cpu time      0.0000: real time      0.0157

  FORCE on cell =-STRESS in cart. coord.  units (eV):
  Direction    XX          YY          ZZ          XY          YZ          ZX
  --------------------------------------------------------------------------------------
  Alpha Z     2.26997     2.26997     2.26997
  Ewald     -45.14259   -45.14259   -45.14259    -0.00000     0.00000    -0.00000
  Hartree     0.15469     0.15469     0.15469     0.00000     0.00000     0.00000
  E(xc)     -12.58477   -12.58477   -12.58477     0.00000     0.00000     0.00000
  Local      -4.98880    -4.98880    -4.98880     0.00000     0.00000     0.00000
  n-local    37.79431    35.75122    38.93144    -0.91584     0.55871     0.85862
  augment    -6.12507    -6.12507    -6.12507    -0.00000    -0.00000    -0.00000
  Kinetic    21.39644    37.33440    26.20490    10.65537    -7.70112   -13.78432
  Fock        0.00000     0.00000     0.00000     0.00000     0.00000     0.00000
  -------------------------------------------------------------------------------------
  Total      -0.61233    -0.61233    -0.61233    -0.00000     0.00000     0.00000
  in kB     -66.15539   -66.15539   -66.15539    -0.00000     0.00000     0.00000
  external pressure =      -66.16 kB  Pullay stress =        0.00 kB


 VOLUME and BASIS-vectors are now :
 -----------------------------------------------------------------------------
  energy-cutoff  :      520.00
  volume of cell :       14.83
      direct lattice vectors                 reciprocal lattice vectors
     1.950000000  1.950000000  0.000000000     0.256410256  0.256410256 -0.256410256
     0.000000000  1.950000000  1.950000000    -0.256410256  0.256410256  0.256410256
     1.950000000  0.000000000  1.950000000     0.256410256 -0.256410256  0.256410256

  length of vectors
     2.757716447  2.757716447  2.757716447     0.444115592  0.444115592  0.444115592


 FORCES acting on ions
    electron-ion (+dipol)            ewald-force                    non-local-force                 convergence-correction
 -----------------------------------------------------------------------------------------------
   0.838E-15 -.711E-15 0.503E-15   -.162E-15 0.162E-15 0.172E-15   -.693E-25 -.625E-25 0.341E-25   0.143E-16 0.295E-16 0.641E-17
 -----------------------------------------------------------------------------------------------
   0.838E-15 -.711E-15 0.503E-15   -.162E-15 0.162E-15 0.172E-15   -.693E-25 -.625E-25 0.341E-25   0.143E-16 0.295E-16 0.641E-17
 
 
 POSITION                                       TOTAL-FORCE (eV/Angst)
 -----------------------------------------------------------------------------------
      0.00000      0.00000      0.00000        -0.000000     -0.000000     -0.000000
 -----------------------------------------------------------------------------------
    total drift:                                0.000000     -0.000000      0.000000


--------------------------------------------------------------------------------------------------------



  FREE ENERGIE OF THE ION-ELECTRON SYSTEM (eV)
  ---------------------------------------------------
  free  energy   TOTEN  =        -4.79439143 eV

  energy  without entropy=       -4.79078173  energy(sigma->0) =       -4.79258658
 


--------------------------------------------------------------------------------------------------------


    POTLOK:  cpu time      0.0267: real time      0.0311


--------------------------------------------------------------------------------------------------------


 writing wavefunctions
     LOOP+:  cpu time      0.5945: real time      6.1416
    4ORBIT:  cpu time      0.0000: real time      0.0000



 total charge

# of ion       s       p       d       tot
------------------------------------------
    1        0.813   0.697   0.000   1.511
 

 total amount of memory used by VASP MPI-rank0    41007. kBytes
=======================================================================

   base      :      30000. kBytes
   nonl-proj :        427. kBytes
   fftplans  :       3916. kBytes
   grid      :       6018. kBytes
   one-center:          3. kBytes
   wavefun   :        643. kBytes
 
  
  
 General timing and accounting informations for this job:
 ========================================================
  
                  Total CPU time used (sec):        1.078
                            User time (sec):        0.799
                          System time (sec):        0.279
                         Elapsed time (sec):        8.306
  
                   Maximum memory used (kb):      285888.
                   Average memory used (kb):          N/A
  
                          Minor page faults:        27642
                          Major page faults:            1
                 Voluntary context switches:         1608
