<?xml version="1.0" encoding="ISO-8859-1"?>
<modeling>
 <generator>
  <i name="program" type="string">vasp </i>
  <i name="version" type="string">6.3.2  </i>
  <i name="subversion" type="string">27Jun22 (build Dec 02 2024 22:47:12) complex                          parallel </i>
  <i name="platform" type="string">LinuxIFC </i>
  <i name="date" type="string">2024 12 19 </i>
  <i name="time" type="string">21:27:39 </i>
 </generator>
 <incar>
  <i type="string" name="SYSTEM">DFT Virtual Orbitals Calculation</i>
  <i type="string" name="PREC">Accurate</i>
  <i type="int" name="IBRION">    -1</i>
  <i name="EDIFF">      0.00000100</i>
  <i type="int" name="NSW">     0</i>
  <i name="ENCUT">    520.00000000</i>
  <i type="int" name="NEDOS">  1000</i>
  <i type="int" name="ISMEAR">     0</i>
  <i name="SIGMA">      0.10000000</i>
  <i type="int" name="LORBIT">    11</i>
  <i type="logical" name="LDAU"> T  </i>
 </incar>
 <primitive_cell>
  <structure name="primitive_cell" >
   <crystal>
    <varray name="basis" >
     <v>       1.95000000       1.95000000       0.00000000 </v>
     <v>       0.00000000       1.95000000       1.95000000 </v>
     <v>       1.95000000       0.00000000       1.95000000 </v>
    </varray>
    <i name="volume">     14.82975000 </i>
    <varray name="rec_basis" >
     <v>       0.25641026       0.25641026      -0.25641026 </v>
     <v>      -0.25641026       0.25641026       0.25641026 </v>
     <v>       0.25641026      -0.25641026       0.25641026 </v>
    </varray>
   </crystal>
   <varray name="positions" >
    <v>       0.00000000       0.00000000       0.00000000 </v>
   </varray>
  </structure>
  <varray name="primitive_index" >
   <v type="int" >        1 </v>
  </varray>
 </primitive_cell>
 <kpoints>
  <generation param="Gamma">
   <v type="int" name="divisions">       6        6        6 </v>
   <v name="usershift">      0.00000000       0.00000000       0.00000000 </v>
   <v name="genvec1">      0.16666667      -0.00000000      -0.00000000 </v>
   <v name="genvec2">     -0.00000000       0.16666667       0.00000000 </v>
   <v name="genvec3">      0.00000000       0.00000000       0.16666667 </v>
   <v name="shift">      0.00000000       0.00000000       0.00000000 </v>
  </generation>
  <varray name="kpointlist" >
   <v>       0.00000000       0.00000000       0.00000000 </v>
   <v>       0.16666667       0.00000000      -0.00000000 </v>
   <v>       0.33333333       0.00000000       0.00000000 </v>
   <v>       0.50000000      -0.00000000      -0.00000000 </v>
   <v>       0.16666667       0.16666667       0.00000000 </v>
   <v>       0.33333333       0.16666667      -0.00000000 </v>
   <v>       0.50000000       0.16666667       0.00000000 </v>
   <v>      -0.33333333       0.16666667       0.00000000 </v>
   <v>      -0.16666667       0.16666667      -0.00000000 </v>
   <v>       0.33333333       0.33333333       0.00000000 </v>
   <v>       0.50000000       0.33333333      -0.00000000 </v>
   <v>      -0.33333333       0.33333333       0.00000000 </v>
   <v>       0.50000000       0.50000000       0.00000000 </v>
   <v>       0.50000000       0.33333333       0.16666667 </v>
   <v>      -0.33333333       0.33333333       0.16666667 </v>
   <v>      -0.33333333       0.50000000       0.16666667 </v>
  </varray>
  <varray name="weights" >
   <v>       0.00462963 </v>
   <v>       0.03703704 </v>
   <v>       0.03703704 </v>
   <v>       0.01851852 </v>
   <v>       0.02777778 </v>
   <v>       0.11111111 </v>
   <v>       0.11111111 </v>
   <v>       0.11111111 </v>
   <v>       0.05555556 </v>
   <v>       0.02777778 </v>
   <v>       0.11111111 </v>
   <v>       0.05555556 </v>
   <v>       0.01388889 </v>
   <v>       0.11111111 </v>
   <v>       0.11111111 </v>
   <v>       0.05555556 </v>
  </varray>
 </kpoints>
 <parameters>
  <separator name="general" >
   <i type="string" name="SYSTEM">DFT Virtual Orbitals Calculation</i>
   <i type="logical" name="LCOMPAT"> F  </i>
  </separator>
  <separator name="electronic" >
   <i type="string" name="PREC">accura</i>
   <i name="ENMAX">    520.00000000</i>
   <i name="ENAUG">    322.06900000</i>
   <i name="EDIFF">      0.00000100</i>
   <i type="int" name="IALGO">    38</i>
   <i type="int" name="IWAVPR">    10</i>
   <i type="int" name="NBANDS">     6</i>
   <i type="int" name="NBANDSLOW">    -1</i>
   <i type="int" name="NBANDSHIGH">    -1</i>
   <i name="NELECT">      4.00000000</i>
   <i type="int" name="TURBO">     0</i>
   <i type="int" name="IRESTART">     0</i>
   <i type="int" name="NREBOOT">     0</i>
   <i type="int" name="NMIN">     0</i>
   <i name="EREF">      0.00000000</i>
   <separator name="electronic smearing" >
    <i type="int" name="ISMEAR">     0</i>
    <i name="SIGMA">      0.10000000</i>
    <i name="KSPACING">      0.50000000</i>
    <i type="logical" name="KGAMMA"> T  </i>
    <i type="logical" name="KBLOWUP"> T  </i>
   </separator>
   <separator name="electronic projectors" >
    <i type="logical" name="LREAL"> F  </i>
    <v name="ROPT">      0.00000000</v>
    <i type="int" name="LMAXPAW">  -100</i>
    <i type="int" name="LMAXMIX">     2</i>
    <i type="logical" name="NLSPLINE"> F  </i>
   </separator>
   <separator name="electronic startup" >
    <i type="int" name="ISTART">     1</i>
    <i type="int" name="ICHARG">     0</i>
    <i type="int" name="INIWAV">     1</i>
   </separator>
   <separator name="electronic spin" >
    <i type="int" name="ISPIN">     1</i>
    <i type="logical" name="LNONCOLLINEAR"> F  </i>
    <v name="MAGMOM">      1.00000000</v>
    <i name="NUPDOWN">     -1.00000000</i>
    <i type="logical" name="LSORBIT"> F  </i>
    <v name="SAXIS">      0.00000000      0.00000000      1.00000000</v>
    <i type="logical" name="LSPIRAL"> F  </i>
    <v name="QSPIRAL">      0.00000000      0.00000000      0.00000000</v>
    <i type="logical" name="LZEROZ"> F  </i>
   </separator>
   <separator name="electronic exchange-correlation" >
    <i type="logical" name="LASPH"> F  </i>
    <i type="logical" name="LMETAGGA"> F  </i>
   </separator>
   <separator name="electronic convergence" >
    <i type="int" name="NELM">    60</i>
    <i type="int" name="NELMDL">     0</i>
    <i type="int" name="NELMIN">     2</i>
    <i name="ENINI">    520.00000000</i>
    <separator name="electronic convergence detail" >
     <i type="logical" name="LDIAG"> T  </i>
     <i type="logical" name="LSUBROT"> F  </i>
     <i name="WEIMIN">      0.00000000</i>
     <i name="EBREAK">      0.00000004</i>
     <i name="DEPER">      0.30000000</i>
     <i type="int" name="NRMM">     4</i>
     <i name="TIME">      0.40000000</i>
    </separator>
   </separator>
   <separator name="electronic mixer" >
    <i name="AMIX">      0.40000000</i>
    <i name="BMIX">      1.00000000</i>
    <i name="AMIN">      0.10000000</i>
    <i name="AMIX_MAG">      1.60000000</i>
    <i name="BMIX_MAG">      1.00000000</i>
    <separator name="electronic mixer details" >
     <i type="int" name="IMIX">     4</i>
     <i type="logical" name="MIXFIRST"> F  </i>
     <i type="int" name="MAXMIX">   -45</i>
     <i name="WC">    100.00000000</i>
     <i type="int" name="INIMIX">     1</i>
     <i type="int" name="MIXPRE">     1</i>
     <i type="int" name="MREMOVE">     5</i>
    </separator>
   </separator>
   <separator name="electronic dipolcorrection" >
    <i type="logical" name="LDIPOL"> F  </i>
    <i type="logical" name="LMONO"> F  </i>
    <i type="int" name="IDIPOL">     0</i>
    <i name="EPSILON">      1.00000000</i>
    <v name="DIPOL">   -100.00000000   -100.00000000   -100.00000000</v>
    <i name="EFIELD">      0.00000000</i>
   </separator>
  </separator>
  <separator name="grids" >
   <i type="int" name="NGX">    24</i>
   <i type="int" name="NGY">    24</i>
   <i type="int" name="NGZ">    24</i>
   <i type="int" name="NGXF">    48</i>
   <i type="int" name="NGYF">    48</i>
   <i type="int" name="NGZF">    48</i>
   <i type="logical" name="ADDGRID"> F  </i>
  </separator>
  <separator name="ionic" >
   <i type="int" name="NSW">     0</i>
   <i type="int" name="IBRION">    -1</i>
   <i type="int" name="MDALGO">     0</i>
   <i type="int" name="ISIF">     2</i>
   <i name="PSTRESS">      0.00000000</i>
   <i name="EDIFFG">      0.00001000</i>
   <i type="int" name="NFREE">     0</i>
   <i name="POTIM">      0.50000000</i>
   <i name="SMASS">     -3.00000000</i>
   <i name="SCALEE">      1.00000000</i>
  </separator>
  <separator name="ionic md" >
   <i name="TEBEG">      0.00010000</i>
   <i name="TEEND">      0.00010000</i>
   <i type="int" name="NBLOCK">     1</i>
   <i type="int" name="KBLOCK">     1</i>
   <i type="int" name="NPACO">   256</i>
   <i name="APACO">     10.00000000</i>
  </separator>
  <separator name="symmetry" >
   <i type="int" name="ISYM">     2</i>
   <i name="SYMPREC">      0.00001000</i>
  </separator>
  <separator name="dos" >
   <i type="int" name="LORBIT">    11</i>
   <v name="RWIGS">     -1.00000000</v>
   <i type="int" name="NEDOS">  1000</i>
   <i name="EMIN">     10.00000000</i>
   <i name="EMAX">    -10.00000000</i>
   <i name="EFERMI">      0.00000000</i>
  </separator>
  <separator name="writing" >
   <i type="int" name="NWRITE">     2</i>
   <i type="logical" name="LWAVE"> T  </i>
   <i type="logical" name="LDOWNSAMPLE"> F  </i>
   <i type="logical" name="LCHARG"> T  </i>
   <i type="logical" name="LPARD"> F  </i>
   <i type="logical" name="LVTOT"> F  </i>
   <i type="logical" name="LVHAR"> F  </i>
   <i type="logical" name="LELF"> F  </i>
   <i type="logical" name="LOPTICS"> F  </i>
   <v name="STM">      0.00000000      0.00000000      0.00000000      0.00000000      0.00000000      0.00000000      0.00000000</v>
  </separator>
  <separator name="performance" >
   <i type="int" name="NPAR">     1</i>
   <i type="int" name="NSIM">     4</i>
   <i type="int" name="NBLK">    -1</i>
   <i type="logical" name="LPLANE"> T  </i>
   <i type="logical" name="LSCALAPACK"> T  </i>
   <i type="logical" name="LSCAAWARE"> F  </i>
   <i type="logical" name="LSCALU"> F  </i>
   <i type="logical" name="LASYNC"> F  </i>
   <i type="logical" name="LORBITALREAL"> F  </i>
  </separator>
  <separator name="miscellaneous" >
   <i type="int" name="IDIOT">     3</i>
   <i type="int" name="PHON_NSTRUCT">    -1</i>
   <i type="logical" name="LMUSIC"> F  </i>
   <v name="POMASS">     28.08500000</v>
   <v name="DARWINR">      0.00000000</v>
   <v name="DARWINV">      1.00000000</v>
   <i type="logical" name="LCORR"> T  </i>
  </separator>
  <i type="logical" name="GGA_COMPAT"> T  </i>
  <i type="logical" name="LBERRY"> F  </i>
  <i type="int" name="ICORELEVEL">     0</i>
  <i type="logical" name="LDAU"> T  </i>
  <v type="int" name="LDAUTYPE">     2</v>
  <v type="int" name="LDAUL">     2</v>
  <v name="LDAUU">      0.00000000</v>
  <v name="LDAUJ">      0.00000000</v>
  <i type="int" name="LDAUPRINT">     0</i>
  <i type="int" name="I_CONSTRAINED_M">     0</i>
  <separator name="electronic exchange-correlation" >
   <i type="string" name="GGA">--</i>
   <i type="int" name="VOSKOWN">     0</i>
   <i type="logical" name="LHFCALC"> F  </i>
   <i type="string" name="PRECFOCK"></i>
   <i type="logical" name="LSYMGRAD"> F  </i>
   <i type="logical" name="LHFONE"> F  </i>
   <i type="logical" name="LRHFCALC"> F  </i>
   <i type="logical" name="LTHOMAS"> F  </i>
   <i type="logical" name="LMODELHF"> F  </i>
   <i type="logical" name="LFOCKACE"> F  </i>
   <i name="ENCUT4O">     -1.00000000</i>
   <i type="int" name="EXXOEP">     0</i>
   <i type="int" name="FOURORBIT">     0</i>
   <i name="AEXX">      0.00000000</i>
   <i name="HFALPHA">      0.00000000</i>
   <i name="MCALPHA">      0.00000000</i>
   <i name="ALDAX">      1.00000000</i>
   <i name="AGGAX">      1.00000000</i>
   <i name="ALDAC">      1.00000000</i>
   <i name="AGGAC">      1.00000000</i>
   <i type="int" name="NKREDX">     1</i>
   <i type="int" name="NKREDY">     1</i>
   <i type="int" name="NKREDZ">     1</i>
   <i type="logical" name="SHIFTRED"> F  </i>
   <i type="logical" name="ODDONLY"> F  </i>
   <i type="logical" name="EVENONLY"> F  </i>
   <i type="int" name="LMAXFOCK">     0</i>
   <i type="int" name="NMAXFOCKAE">     0</i>
   <i type="logical" name="LFOCKAEDFT"> F  </i>
   <i name="HFSCREEN">      0.00000000</i>
   <i name="HFSCREENC">      0.00000000</i>
   <i type="int" name="NBANDSGWLOW">     0</i>
  </separator>
  <separator name="vdW DFT" >
   <i type="logical" name="LUSE_VDW"> F  </i>
   <i name="Zab_VDW">     -0.84910000</i>
   <i name="PARAM1">      0.12340000</i>
   <i name="PARAM2">      1.00000000</i>
   <i name="PARAM3">      0.00000000</i>
  </separator>
  <separator name="model GW" >
   <i type="int" name="MODEL_GW">     0</i>
   <i name="MODEL_EPS0">      8.89785000</i>
   <i name="MODEL_ALPHA">      1.00000000</i>
  </separator>
  <separator name="linear response parameters" >
   <i type="logical" name="LEPSILON"> F  </i>
   <i type="logical" name="LRPA"> F  </i>
   <i type="logical" name="LNABLA"> F  </i>
   <i type="logical" name="LVEL"> F  </i>
   <i name="CSHIFT">      0.10000000</i>
   <i name="OMEGAMAX">     -1.00000000</i>
   <i name="DEG_THRESHOLD">      0.00200000</i>
   <i name="RTIME">     -0.10000000</i>
   <i name="WPLASMAI">      0.00000000</i>
   <v name="DFIELD">      0.00000000      0.00000000      0.00000000</v>
   <v name="WPLASMA">      0.00000000      0.00000000      0.00000000      0.00000000      0.00000000      0.00000000      0.00000000      0.00000000      0.00000000</v>
  </separator>
  <separator name="orbital magnetization" >
   <i type="logical" name="NUCIND"> F  </i>
   <v name="MAGPOS">      0.00000000      0.00000000      0.00000000</v>
   <i type="logical" name="LNICSALL"> T  </i>
   <i type="logical" name="ORBITALMAG"> F  </i>
   <i type="logical" name="LMAGBLOCH"> F  </i>
   <i type="logical" name="LCHIMAG"> F  </i>
   <i type="logical" name="LGAUGE"> T  </i>
   <i type="int" name="MAGATOM">     0</i>
   <v name="MAGDIPOL">      0.00000000      0.00000000      0.00000000</v>
   <v name="AVECCONST">      0.00000000      0.00000000      0.00000000</v>
  </separator>
  <separator name="response functions" >
   <i type="logical" name="LFINITE_TEMPERATURE"> F  </i>
   <i type="logical" name="LADDER"> F  </i>
   <i type="logical" name="LRPAFORCE"> F  </i>
   <i type="logical" name="LFXC"> F  </i>
   <i type="logical" name="LHARTREE"> T  </i>
   <i type="int" name="IBSE">     0</i>
   <v type="int" name="KPOINT">    -1     0     0     0</v>
   <i type="logical" name="LTCTC"> F  </i>
   <i type="logical" name="LTCTE"> F  </i>
   <i type="logical" name="LTETE"> F  </i>
   <i type="logical" name="LTRIPLET"> F  </i>
   <i type="logical" name="LFXCEPS"> F  </i>
   <i type="logical" name="LFXHEG"> F  </i>
   <i type="int" name="NATURALO">     2</i>
   <i type="logical" name="LHOLEGF"> F  </i>
   <i type="logical" name="L2ORDER"> F  </i>
   <i type="logical" name="LDMP1"> F  </i>
   <i type="logical" name="LMP2LT"> F  </i>
   <i type="logical" name="LSMP2LT"> F  </i>
   <i type="logical" name="LGWLF"> F  </i>
   <i name="ENCUTGW">     -2.00000000</i>
   <i name="ENCUTGWSOFT">     -2.00000000</i>
   <i name="ENCUTLF">     -1.00000000</i>
   <i type="logical" name="LESF_SPLINES"> F  </i>
   <i type="int" name="LMAXMP2">    -1</i>
   <i name="SCISSOR">      0.00000000</i>
   <i type="int" name="NOMEGA">     0</i>
   <i type="int" name="NOMEGAR">     0</i>
   <i type="int" name="NBANDSGW">    -1</i>
   <i type="int" name="NBANDSO">    -1</i>
   <i type="int" name="NBANDSV">    -1</i>
   <i type="int" name="NELMGW">     1</i>
   <i type="int" name="NELMHF">     1</i>
   <i type="int" name="DIM">     3</i>
   <i type="int" name="IESPILON">     4</i>
   <i type="int" name="ANTIRES">     0</i>
   <i name="OMEGAMAX">    -30.00000000</i>
   <i name="OMEGAMIN">    -30.00000000</i>
   <i name="OMEGATL">   -200.00000000</i>
   <i type="int" name="OMEGAGRID">     0</i>
   <i name="CSHIFT">     -0.10000000</i>
   <i type="logical" name="LSELFENERGY"> F  </i>
   <i type="logical" name="LSPECTRAL"> F  </i>
   <i type="logical" name="LSPECTRALGW"> F  </i>
   <i type="logical" name="LSINGLES"> F  </i>
   <i type="logical" name="LFERMIGW"> F  </i>
   <i type="logical" name="ODDONLYGW"> F  </i>
   <i type="logical" name="EVENONLYGW"> F  </i>
   <i type="int" name="NKREDLFX">     1</i>
   <i type="int" name="NKREDLFY">     1</i>
   <i type="int" name="NKREDLFZ">     1</i>
   <i type="int" name="MAXMEM">  2800</i>
   <i type="int" name="TELESCOPE">     0</i>
   <i type="int" name="NTAUPAR">    -1</i>
   <i type="int" name="NOMEGAPAR">    -1</i>
   <i name="DAMP_NEWTON">      0.80000001</i>
   <i name="LAMBDA">      1.00000000</i>
  </separator>
  <separator name="External order field" >
   <i name="OFIELD_KAPPA">      0.00000000</i>
   <v name="OFIELD_K">      0.00000000      0.00000000      0.00000000</v>
   <i name="OFIELD_Q6_NEAR">      0.00000000</i>
   <i name="OFIELD_Q6_FAR">      0.00000000</i>
   <i name="OFIELD_A">      0.00000000</i>
  </separator>
  <separator name="optional k-points parameters" >
   <i type="int" name="KPOINTS_OPT_MODE">     1</i>
   <i type="logical" name="LKPOINTS_OPT"> F  </i>
  </separator>
 </parameters>
 <atominfo>
  <atoms>       1 </atoms>
  <types>       1 </types>
  <array name="atoms" >
   <dimension dim="1">ion</dimension>
   <field type="string">element</field>
   <field type="int">atomtype</field>
   <set>
    <rc><c>Si</c><c>   1</c></rc>
   </set>
  </array>
  <array name="atomtypes" >
   <dimension dim="1">type</dimension>
   <field type="int">atomspertype</field>
   <field type="string">element</field>
   <field>mass</field>
   <field>valence</field>
   <field type="string">pseudopotential</field>
   <set>
    <rc><c>   1</c><c>Si</c><c>     28.08500000</c><c>      4.00000000</c><c> PAW_PBE Si 05Jan2001                   </c></rc>
   </set>
  </array>
 </atominfo>
 <structure name="initialpos" >
  <crystal>
   <varray name="basis" >
    <v>       1.95000000       1.95000000       0.00000000 </v>
    <v>       0.00000000       1.95000000       1.95000000 </v>
    <v>       1.95000000       0.00000000       1.95000000 </v>
   </varray>
   <i name="volume">     14.82975000 </i>
   <varray name="rec_basis" >
    <v>       0.25641026       0.25641026      -0.25641026 </v>
    <v>      -0.25641026       0.25641026       0.25641026 </v>
    <v>       0.25641026      -0.25641026       0.25641026 </v>
   </varray>
  </crystal>
  <varray name="positions" >
   <v>       0.00000000       0.00000000       0.00000000 </v>
  </varray>
 </structure>
 <calculation>
  <scstep>
   <time name="dav">    0.04    0.05</time>
   <time name="total">    0.09    0.10</time>
   <energy>
    <i name="alphaZ">      2.26996938 </i>
    <i name="ewald">   -135.42777035 </i>
    <i name="hartreedc">     -0.38025991 </i>
    <i name="XCdc">     -8.81427991 </i>
    <i name="pawpsdc">     31.94089752 </i>
    <i name="pawaedc">    -14.28870291 </i>
    <i name="eentropy">     -0.00360822 </i>
    <i name="bandstr">     16.83639914 </i>
    <i name="atom">    103.06635137 </i>
    <i name="e_fr_energy">     -4.80100390 </i>
    <i name="e_wo_entrp">     -4.79739567 </i>
    <i name="e_0_energy">     -4.79919979 </i>
   </energy>
  </scstep>
  <scstep>
   <time name="dav">    0.03    0.06</time>
   <time name="total">    0.06    0.10</time>
   <energy>
    <i name="e_fr_energy">     -4.79663511 </i>
    <i name="e_wo_entrp">     -4.79302634 </i>
    <i name="e_0_energy">     -4.79483072 </i>
   </energy>
  </scstep>
  <scstep>
   <time name="dav">    0.03    0.04</time>
   <time name="total">    0.06    0.07</time>
   <energy>
    <i name="e_fr_energy">     -4.79439848 </i>
    <i name="e_wo_entrp">     -4.79078887 </i>
    <i name="e_0_energy">     -4.79259367 </i>
   </energy>
  </scstep>
  <scstep>
   <time name="dav">    0.03    0.03</time>
   <time name="total">    0.07    0.10</time>
   <energy>
    <i name="e_fr_energy">     -4.79439475 </i>
    <i name="e_wo_entrp">     -4.79078511 </i>
    <i name="e_0_energy">     -4.79258993 </i>
   </energy>
  </scstep>
  <scstep>
   <time name="dav">    0.02    0.02</time>
   <time name="total">    0.05    0.06</time>
   <energy>
    <i name="e_fr_energy">     -4.79439139 </i>
    <i name="e_wo_entrp">     -4.79078170 </i>
    <i name="e_0_energy">     -4.79258654 </i>
   </energy>
  </scstep>
  <scstep>
   <time name="dav">    0.02    0.02</time>
   <time name="total">    0.05    0.06</time>
   <energy>
    <i name="alphaZ">      2.26996938 </i>
    <i name="ewald">   -135.42777035 </i>
    <i name="hartreedc">     -0.46408330 </i>
    <i name="XCdc">     -8.82350906 </i>
    <i name="pawpsdc">     33.15329264 </i>
    <i name="pawaedc">    -15.55089186 </i>
    <i name="eentropy">     -0.00360969 </i>
    <i name="bandstr">     16.98585946 </i>
    <i name="atom">    103.06635137 </i>
    <i name="e_fr_energy">     -4.79439143 </i>
    <i name="e_wo_entrp">     -4.79078173 </i>
    <i name="e_0_energy">     -4.79258658 </i>
   </energy>
  </scstep>
  <structure>
   <crystal>
    <varray name="basis" >
     <v>       1.95000000       1.95000000       0.00000000 </v>
     <v>       0.00000000       1.95000000       1.95000000 </v>
     <v>       1.95000000       0.00000000       1.95000000 </v>
    </varray>
    <i name="volume">     14.82975000 </i>
    <varray name="rec_basis" >
     <v>       0.25641026       0.25641026      -0.25641026 </v>
     <v>      -0.25641026       0.25641026       0.25641026 </v>
     <v>       0.25641026      -0.25641026       0.25641026 </v>
    </varray>
   </crystal>
   <varray name="positions" >
    <v>       0.00000000       0.00000000       0.00000000 </v>
   </varray>
  </structure>
  <varray name="forces" >
   <v>      -0.00000000      -0.00000000      -0.00000000 </v>
  </varray>
  <varray name="stress" >
   <v>     -66.15539335       0.00000000       0.00000000 </v>
   <v>      -0.00000000     -66.15539335      -0.00000000 </v>
   <v>       0.00000000       0.00000000     -66.15539335 </v>
  </varray>
  <energy>
   <i name="e_fr_energy">     -4.79439143 </i>
   <i name="e_wo_entrp">     -4.79078173 </i>
   <i name="e_0_energy">     -4.79258658 </i>
  </energy>
  <time name="totalsc">    0.59    6.14</time>
  <eigenvalues>
   <array>
    <dimension dim="1">band</dimension>
    <dimension dim="2">kpoint</dimension>
    <dimension dim="3">spin</dimension>
    <field>eigene</field>
    <field>occ</field>
    <set>
     <set comment="spin 1">
      <set comment="kpoint 1">
       <r>   -4.3869    1.0000 </r>
       <r>   20.6705    0.0000 </r>
       <r>   20.6705    0.0000 </r>
       <r>   20.6705    0.0000 </r>
       <r>   21.6755    0.0000 </r>
       <r>   21.6755    0.0000 </r>
      </set>
      <set comment="kpoint 2">
       <r>   -3.5928    1.0000 </r>
       <r>   14.5070    0.0000 </r>
       <r>   19.0409    0.0000 </r>
       <r>   19.0409    0.0000 </r>
       <r>   22.8583    0.0000 </r>
       <r>   23.7706    0.0000 </r>
      </set>
      <set comment="kpoint 3">
       <r>   -1.2319    1.0000 </r>
       <r>    7.9959    1.0000 </r>
       <r>   18.2025    0.0000 </r>
       <r>   18.2025    0.0000 </r>
       <r>   21.8887    0.0000 </r>
       <r>   21.8887    0.0000 </r>
      </set>
      <set comment="kpoint 4">
       <r>    2.2927    1.0000 </r>
       <r>    3.0491    1.0000 </r>
       <r>   18.1660    0.0000 </r>
       <r>   18.1660    0.0000 </r>
       <r>   20.6201    0.0000 </r>
       <r>   20.6201    0.0000 </r>
      </set>
      <set comment="kpoint 5">
       <r>   -3.3286    1.0000 </r>
       <r>   16.6450    0.0000 </r>
       <r>   16.6450    0.0000 </r>
       <r>   18.3670    0.0000 </r>
       <r>   18.4401    0.0000 </r>
       <r>   21.8977    0.0000 </r>
      </set>
      <set comment="kpoint 6">
       <r>   -1.4905    1.0000 </r>
       <r>   10.6760    0.0000 </r>
       <r>   15.4893    0.0000 </r>
       <r>   16.1000    0.0000 </r>
       <r>   18.3501    0.0000 </r>
       <r>   22.6116    0.0000 </r>
      </set>
      <set comment="kpoint 7">
       <r>    1.8551    1.0000 </r>
       <r>    5.0034    1.0000 </r>
       <r>   13.7953    0.0000 </r>
       <r>   15.6896    0.0000 </r>
       <r>   18.4128    0.0000 </r>
       <r>   24.4389    0.0000 </r>
      </set>
      <set comment="kpoint 8">
       <r>    0.5833    1.0000 </r>
       <r>    6.7419    1.0000 </r>
       <r>   12.6526    0.0000 </r>
       <r>   17.1944    0.0000 </r>
       <r>   20.0802    0.0000 </r>
       <r>   23.4486    0.0000 </r>
      </set>
      <set comment="kpoint 9">
       <r>   -2.2764    1.0000 </r>
       <r>   12.5335    0.0000 </r>
       <r>   13.2018    0.0000 </r>
       <r>   19.6327    0.0000 </r>
       <r>   22.9897    0.0000 </r>
       <r>   23.7132    0.0000 </r>
      </set>
      <set comment="kpoint 10">
       <r>   -0.1858    1.0000 </r>
       <r>   11.8615    0.0000 </r>
       <r>   13.8836    0.0000 </r>
       <r>   13.8836    0.0000 </r>
       <r>   15.3339    0.0000 </r>
       <r>   17.5370    0.0000 </r>
      </set>
      <set comment="kpoint 11">
       <r>    2.6416    1.0000 </r>
       <r>    8.4138    1.0000 </r>
       <r>    9.0812    1.0000 </r>
       <r>   13.6474    0.0000 </r>
       <r>   16.1156    0.0000 </r>
       <r>   20.8878    0.0000 </r>
      </set>
      <set comment="kpoint 12">
       <r>    3.8890    1.0000 </r>
       <r>    6.6005    1.0000 </r>
       <r>    7.4716    1.0000 </r>
       <r>   14.7847    0.0000 </r>
       <r>   17.4365    0.0000 </r>
       <r>   26.9864    0.0000 </r>
      </set>
      <set comment="kpoint 13">
       <r>    4.6045    1.0000 </r>
       <r>    5.3277    1.0000 </r>
       <r>   12.9556    0.0000 </r>
       <r>   12.9556    0.0000 </r>
       <r>   14.2906    0.0000 </r>
       <r>   16.4987    0.0000 </r>
      </set>
      <set comment="kpoint 14">
       <r>    0.8465    1.0000 </r>
       <r>    9.5820    0.9117 </r>
       <r>   10.3155    0.0000 </r>
       <r>   13.0345    0.0000 </r>
       <r>   21.5133    0.0000 </r>
       <r>   22.1199    0.0000 </r>
      </set>
      <set comment="kpoint 15">
       <r>    4.3705    1.0000 </r>
       <r>    5.0160    1.0000 </r>
       <r>   10.3765    0.0000 </r>
       <r>   11.1941    0.0000 </r>
       <r>   22.0264    0.0000 </r>
       <r>   23.2415    0.0000 </r>
      </set>
      <set comment="kpoint 16">
       <r>    5.6030    1.0000 </r>
       <r>    6.2699    1.0000 </r>
       <r>    8.5907    1.0000 </r>
       <r>    9.5749    0.9267 </r>
       <r>   20.5681    0.0000 </r>
       <r>   21.4534    0.0000 </r>
      </set>
     </set>
    </set>
   </array>
  </eigenvalues>
  <separator name="orbital magnetization" >
   <v name="MAGDIPOLOUT">      0.00000000      0.00000000      0.00000000</v>
  </separator>
  <dos>
   <i name="efermi">      9.67753295 </i>
   <total>
    <array>
     <dimension dim="1">gridpoints</dimension>
     <dimension dim="2">spin</dimension>
     <field>energy</field>
     <field>total</field>
     <field>integrated</field>
     <set>
      <set comment="spin 1">
       <r>    -5.9556     0.0000     0.0000 </r>
       <r>    -5.9210     0.0000     0.0000 </r>
       <r>    -5.8865     0.0000     0.0000 </r>
       <r>    -5.8519     0.0000     0.0000 </r>
       <r>    -5.8174     0.0000     0.0000 </r>
       <r>    -5.7829     0.0000     0.0000 </r>
       <r>    -5.7483     0.0000     0.0000 </r>
       <r>    -5.7138     0.0000     0.0000 </r>
       <r>    -5.6792     0.0000     0.0000 </r>
       <r>    -5.6447     0.0000     0.0000 </r>
       <r>    -5.6101     0.0000     0.0000 </r>
       <r>    -5.5756     0.0000     0.0000 </r>
       <r>    -5.5410     0.0000     0.0000 </r>
       <r>    -5.5065     0.0000     0.0000 </r>
       <r>    -5.4719     0.0000     0.0000 </r>
       <r>    -5.4374     0.0000     0.0000 </r>
       <r>    -5.4029     0.0000     0.0000 </r>
       <r>    -5.3683     0.0000     0.0000 </r>
       <r>    -5.3338     0.0000     0.0000 </r>
       <r>    -5.2992     0.0000     0.0000 </r>
       <r>    -5.2647     0.0000     0.0000 </r>
       <r>    -5.2301     0.0000     0.0000 </r>
       <r>    -5.1956     0.0000     0.0000 </r>
       <r>    -5.1610     0.0000     0.0000 </r>
       <r>    -5.1265     0.0000     0.0000 </r>
       <r>    -5.0919     0.0000     0.0000 </r>
       <r>    -5.0574     0.0000     0.0000 </r>
       <r>    -5.0229     0.0000     0.0000 </r>
       <r>    -4.9883     0.0000     0.0000 </r>
       <r>    -4.9538     0.0000     0.0000 </r>
       <r>    -4.9192     0.0000     0.0000 </r>
       <r>    -4.8847     0.0000     0.0000 </r>
       <r>    -4.8501     0.0000     0.0000 </r>
       <r>    -4.8156     0.0000     0.0000 </r>
       <r>    -4.7810     0.0000     0.0000 </r>
       <r>    -4.7465     0.0000     0.0000 </r>
       <r>    -4.7120     0.0000     0.0000 </r>
       <r>    -4.6774     0.0000     0.0000 </r>
       <r>    -4.6429     0.0000     0.0000 </r>
       <r>    -4.6083     0.0002     0.0000 </r>
       <r>    -4.5738     0.0009     0.0000 </r>
       <r>    -4.5392     0.0031     0.0001 </r>
       <r>    -4.5047     0.0087     0.0004 </r>
       <r>    -4.4701     0.0192     0.0011 </r>
       <r>    -4.4356     0.0338     0.0023 </r>
       <r>    -4.4010     0.0470     0.0039 </r>
       <r>    -4.3665     0.0517     0.0057 </r>
       <r>    -4.3320     0.0450     0.0072 </r>
       <r>    -4.2974     0.0310     0.0083 </r>
       <r>    -4.2629     0.0169     0.0089 </r>
       <r>    -4.2283     0.0073     0.0091 </r>
       <r>    -4.1938     0.0025     0.0092 </r>
       <r>    -4.1592     0.0007     0.0093 </r>
       <r>    -4.1247     0.0001     0.0093 </r>
       <r>    -4.0901     0.0000     0.0093 </r>
       <r>    -4.0556     0.0000     0.0093 </r>
       <r>    -4.0210     0.0000     0.0093 </r>
       <r>    -3.9865     0.0000     0.0093 </r>
       <r>    -3.9520     0.0000     0.0093 </r>
       <r>    -3.9174     0.0000     0.0093 </r>
       <r>    -3.8829     0.0000     0.0093 </r>
       <r>    -3.8483     0.0003     0.0093 </r>
       <r>    -3.8138     0.0016     0.0093 </r>
       <r>    -3.7792     0.0071     0.0096 </r>
       <r>    -3.7447     0.0251     0.0104 </r>
       <r>    -3.7101     0.0701     0.0129 </r>
       <r>    -3.6756     0.1552     0.0182 </r>
       <r>    -3.6411     0.2718     0.0276 </r>
       <r>    -3.6065     0.3768     0.0406 </r>
       <r>    -3.5720     0.4137     0.0549 </r>
       <r>    -3.5374     0.3608     0.0674 </r>
       <r>    -3.5029     0.2550     0.0762 </r>
       <r>    -3.4683     0.1616     0.0818 </r>
       <r>    -3.4338     0.1289     0.0862 </r>
       <r>    -3.3992     0.1650     0.0919 </r>
       <r>    -3.3647     0.2399     0.1002 </r>
       <r>    -3.3301     0.3008     0.1106 </r>
       <r>    -3.2956     0.3031     0.1211 </r>
       <r>    -3.2611     0.2424     0.1295 </r>
       <r>    -3.2265     0.1534     0.1348 </r>
       <r>    -3.1920     0.0769     0.1374 </r>
       <r>    -3.1574     0.0305     0.1385 </r>
       <r>    -3.1229     0.0096     0.1388 </r>
       <r>    -3.0883     0.0024     0.1389 </r>
       <r>    -3.0538     0.0005     0.1389 </r>
       <r>    -3.0192     0.0001     0.1389 </r>
       <r>    -2.9847     0.0000     0.1389 </r>
       <r>    -2.9501     0.0000     0.1389 </r>
       <r>    -2.9156     0.0000     0.1389 </r>
       <r>    -2.8811     0.0000     0.1389 </r>
       <r>    -2.8465     0.0000     0.1389 </r>
       <r>    -2.8120     0.0000     0.1389 </r>
       <r>    -2.7774     0.0000     0.1389 </r>
       <r>    -2.7429     0.0000     0.1389 </r>
       <r>    -2.7083     0.0000     0.1389 </r>
       <r>    -2.6738     0.0000     0.1389 </r>
       <r>    -2.6392     0.0000     0.1389 </r>
       <r>    -2.6047     0.0000     0.1389 </r>
       <r>    -2.5702     0.0000     0.1389 </r>
       <r>    -2.5356     0.0003     0.1389 </r>
       <r>    -2.5011     0.0020     0.1390 </r>
       <r>    -2.4665     0.0092     0.1393 </r>
       <r>    -2.4320     0.0332     0.1404 </r>
       <r>    -2.3974     0.0953     0.1437 </r>
       <r>    -2.3629     0.2163     0.1512 </r>
       <r>    -2.3283     0.3884     0.1646 </r>
       <r>    -2.2938     0.5519     0.1837 </r>
       <r>    -2.2592     0.6207     0.2051 </r>
       <r>    -2.2247     0.5524     0.2242 </r>
       <r>    -2.1902     0.3891     0.2376 </r>
       <r>    -2.1556     0.2169     0.2451 </r>
       <r>    -2.1211     0.0957     0.2484 </r>
       <r>    -2.0865     0.0334     0.2496 </r>
       <r>    -2.0520     0.0092     0.2499 </r>
       <r>    -2.0174     0.0020     0.2500 </r>
       <r>    -1.9829     0.0003     0.2500 </r>
       <r>    -1.9483     0.0000     0.2500 </r>
       <r>    -1.9138     0.0000     0.2500 </r>
       <r>    -1.8792     0.0000     0.2500 </r>
       <r>    -1.8447     0.0000     0.2500 </r>
       <r>    -1.8102     0.0000     0.2500 </r>
       <r>    -1.7756     0.0002     0.2500 </r>
       <r>    -1.7411     0.0011     0.2500 </r>
       <r>    -1.7065     0.0060     0.2502 </r>
       <r>    -1.6720     0.0258     0.2511 </r>
       <r>    -1.6374     0.0882     0.2542 </r>
       <r>    -1.6029     0.2387     0.2624 </r>
       <r>    -1.5683     0.5112     0.2801 </r>
       <r>    -1.5338     0.8662     0.3100 </r>
       <r>    -1.4993     1.1617     0.3501 </r>
       <r>    -1.4647     1.2335     0.3928 </r>
       <r>    -1.4302     1.0396     0.4287 </r>
       <r>    -1.3956     0.7047     0.4530 </r>
       <r>    -1.3611     0.4124     0.4673 </r>
       <r>    -1.3265     0.2718     0.4766 </r>
       <r>    -1.2920     0.2797     0.4863 </r>
       <r>    -1.2574     0.3586     0.4987 </r>
       <r>    -1.2229     0.4137     0.5130 </r>
       <r>    -1.1883     0.3872     0.5264 </r>
       <r>    -1.1538     0.2881     0.5363 </r>
       <r>    -1.1193     0.1697     0.5422 </r>
       <r>    -1.0847     0.0791     0.5449 </r>
       <r>    -1.0502     0.0292     0.5459 </r>
       <r>    -1.0156     0.0085     0.5462 </r>
       <r>    -0.9811     0.0020     0.5463 </r>
       <r>    -0.9465     0.0004     0.5463 </r>
       <r>    -0.9120     0.0001     0.5463 </r>
       <r>    -0.8774     0.0000     0.5463 </r>
       <r>    -0.8429     0.0000     0.5463 </r>
       <r>    -0.8083     0.0000     0.5463 </r>
       <r>    -0.7738     0.0000     0.5463 </r>
       <r>    -0.7393     0.0000     0.5463 </r>
       <r>    -0.7047     0.0000     0.5463 </r>
       <r>    -0.6702     0.0000     0.5463 </r>
       <r>    -0.6356     0.0000     0.5463 </r>
       <r>    -0.6011     0.0000     0.5463 </r>
       <r>    -0.5665     0.0000     0.5463 </r>
       <r>    -0.5320     0.0000     0.5463 </r>
       <r>    -0.4974     0.0000     0.5463 </r>
       <r>    -0.4629     0.0001     0.5463 </r>
       <r>    -0.4284     0.0004     0.5463 </r>
       <r>    -0.3938     0.0021     0.5464 </r>
       <r>    -0.3593     0.0088     0.5467 </r>
       <r>    -0.3247     0.0284     0.5477 </r>
       <r>    -0.2902     0.0727     0.5502 </r>
       <r>    -0.2556     0.1475     0.5553 </r>
       <r>    -0.2211     0.2367     0.5634 </r>
       <r>    -0.1865     0.3006     0.5738 </r>
       <r>    -0.1520     0.3022     0.5843 </r>
       <r>    -0.1174     0.2404     0.5926 </r>
       <r>    -0.0829     0.1513     0.5978 </r>
       <r>    -0.0484     0.0754     0.6004 </r>
       <r>    -0.0138     0.0297     0.6014 </r>
       <r>     0.0207     0.0093     0.6018 </r>
       <r>     0.0553     0.0023     0.6018 </r>
       <r>     0.0898     0.0004     0.6018 </r>
       <r>     0.1244     0.0001     0.6019 </r>
       <r>     0.1589     0.0000     0.6019 </r>
       <r>     0.1935     0.0000     0.6019 </r>
       <r>     0.2280     0.0000     0.6019 </r>
       <r>     0.2626     0.0000     0.6019 </r>
       <r>     0.2971     0.0001     0.6019 </r>
       <r>     0.3316     0.0010     0.6019 </r>
       <r>     0.3662     0.0057     0.6021 </r>
       <r>     0.4007     0.0247     0.6029 </r>
       <r>     0.4353     0.0852     0.6059 </r>
       <r>     0.4698     0.2323     0.6139 </r>
       <r>     0.5044     0.5011     0.6312 </r>
       <r>     0.5389     0.8553     0.6608 </r>
       <r>     0.5735     1.1555     0.7007 </r>
       <r>     0.6080     1.2367     0.7434 </r>
       <r>     0.6425     1.0546     0.7798 </r>
       <r>     0.6771     0.7398     0.8054 </r>
       <r>     0.7116     0.4986     0.8226 </r>
       <r>     0.7462     0.4750     0.8390 </r>
       <r>     0.7807     0.6825     0.8626 </r>
       <r>     0.8153     0.9989     0.8971 </r>
       <r>     0.8498     1.2206     0.9393 </r>
       <r>     0.8844     1.1915     0.9804 </r>
       <r>     0.9189     0.9219     1.0123 </r>
       <r>     0.9535     0.5646     1.0318 </r>
       <r>     0.9880     0.2737     1.0412 </r>
       <r>     1.0225     0.1050     1.0449 </r>
       <r>     1.0571     0.0318     1.0460 </r>
       <r>     1.0916     0.0076     1.0462 </r>
       <r>     1.1262     0.0015     1.0463 </r>
       <r>     1.1607     0.0002     1.0463 </r>
       <r>     1.1953     0.0000     1.0463 </r>
       <r>     1.2298     0.0000     1.0463 </r>
       <r>     1.2644     0.0000     1.0463 </r>
       <r>     1.2989     0.0000     1.0463 </r>
       <r>     1.3335     0.0000     1.0463 </r>
       <r>     1.3680     0.0000     1.0463 </r>
       <r>     1.4025     0.0000     1.0463 </r>
       <r>     1.4371     0.0000     1.0463 </r>
       <r>     1.4716     0.0000     1.0463 </r>
       <r>     1.5062     0.0000     1.0463 </r>
       <r>     1.5407     0.0000     1.0463 </r>
       <r>     1.5753     0.0002     1.0463 </r>
       <r>     1.6098     0.0014     1.0464 </r>
       <r>     1.6444     0.0076     1.0466 </r>
       <r>     1.6789     0.0317     1.0477 </r>
       <r>     1.7134     0.1045     1.0513 </r>
       <r>     1.7480     0.2726     1.0607 </r>
       <r>     1.7825     0.5631     1.0802 </r>
       <r>     1.8171     0.9203     1.1120 </r>
       <r>     1.8516     1.1903     1.1531 </r>
       <r>     1.8862     1.2183     1.1952 </r>
       <r>     1.9207     0.9869     1.2293 </r>
       <r>     1.9553     0.6326     1.2511 </r>
       <r>     1.9898     0.3209     1.2622 </r>
       <r>     2.0244     0.1289     1.2667 </r>
       <r>     2.0589     0.0413     1.2681 </r>
       <r>     2.0934     0.0124     1.2685 </r>
       <r>     2.1280     0.0101     1.2689 </r>
       <r>     2.1625     0.0249     1.2697 </r>
       <r>     2.1971     0.0594     1.2718 </r>
       <r>     2.2316     0.1134     1.2757 </r>
       <r>     2.2662     0.1715     1.2816 </r>
       <r>     2.3007     0.2052     1.2887 </r>
       <r>     2.3353     0.1943     1.2954 </r>
       <r>     2.3698     0.1459     1.3005 </r>
       <r>     2.4044     0.0885     1.3035 </r>
       <r>     2.4389     0.0513     1.3053 </r>
       <r>     2.4734     0.0576     1.3073 </r>
       <r>     2.5080     0.1374     1.3120 </r>
       <r>     2.5425     0.3300     1.3234 </r>
       <r>     2.5771     0.6440     1.3457 </r>
       <r>     2.6116     0.9970     1.3801 </r>
       <r>     2.6462     1.2218     1.4223 </r>
       <r>     2.6807     1.1849     1.4633 </r>
       <r>     2.7153     0.9095     1.4947 </r>
       <r>     2.7498     0.5524     1.5138 </r>
       <r>     2.7843     0.2656     1.5229 </r>
       <r>     2.8189     0.1015     1.5264 </r>
       <r>     2.8534     0.0328     1.5276 </r>
       <r>     2.8880     0.0164     1.5281 </r>
       <r>     2.9225     0.0286     1.5291 </r>
       <r>     2.9571     0.0644     1.5314 </r>
       <r>     2.9916     0.1197     1.5355 </r>
       <r>     3.0262     0.1766     1.5416 </r>
       <r>     3.0607     0.2063     1.5487 </r>
       <r>     3.0953     0.1906     1.5553 </r>
       <r>     3.1298     0.1395     1.5601 </r>
       <r>     3.1643     0.0807     1.5629 </r>
       <r>     3.1989     0.0370     1.5642 </r>
       <r>     3.2334     0.0134     1.5646 </r>
       <r>     3.2680     0.0038     1.5648 </r>
       <r>     3.3025     0.0009     1.5648 </r>
       <r>     3.3371     0.0002     1.5648 </r>
       <r>     3.3716     0.0000     1.5648 </r>
       <r>     3.4062     0.0000     1.5648 </r>
       <r>     3.4407     0.0000     1.5648 </r>
       <r>     3.4753     0.0000     1.5648 </r>
       <r>     3.5098     0.0000     1.5648 </r>
       <r>     3.5443     0.0000     1.5648 </r>
       <r>     3.5789     0.0000     1.5648 </r>
       <r>     3.6134     0.0001     1.5648 </r>
       <r>     3.6480     0.0009     1.5649 </r>
       <r>     3.6825     0.0046     1.5650 </r>
       <r>     3.7171     0.0186     1.5657 </r>
       <r>     3.7516     0.0596     1.5677 </r>
       <r>     3.7862     0.1510     1.5729 </r>
       <r>     3.8207     0.3030     1.5834 </r>
       <r>     3.8552     0.4811     1.6000 </r>
       <r>     3.8898     0.6045     1.6209 </r>
       <r>     3.9243     0.6011     1.6417 </r>
       <r>     3.9589     0.4730     1.6580 </r>
       <r>     3.9934     0.2945     1.6682 </r>
       <r>     4.0280     0.1451     1.6732 </r>
       <r>     4.0625     0.0566     1.6751 </r>
       <r>     4.0971     0.0178     1.6758 </r>
       <r>     4.1316     0.0062     1.6760 </r>
       <r>     4.1662     0.0109     1.6763 </r>
       <r>     4.2007     0.0402     1.6777 </r>
       <r>     4.2352     0.1268     1.6821 </r>
       <r>     4.2698     0.3170     1.6931 </r>
       <r>     4.3043     0.6272     1.7147 </r>
       <r>     4.3389     0.9820     1.7487 </r>
       <r>     4.3734     1.2169     1.7907 </r>
       <r>     4.4080     1.1946     1.8320 </r>
       <r>     4.4425     0.9322     1.8642 </r>
       <r>     4.4771     0.5883     1.8845 </r>
       <r>     4.5116     0.3234     1.8957 </r>
       <r>     4.5462     0.1948     1.9024 </r>
       <r>     4.5807     0.1639     1.9081 </r>
       <r>     4.6152     0.1623     1.9137 </r>
       <r>     4.6498     0.1451     1.9187 </r>
       <r>     4.6843     0.1059     1.9223 </r>
       <r>     4.7189     0.0618     1.9245 </r>
       <r>     4.7534     0.0300     1.9255 </r>
       <r>     4.7880     0.0199     1.9262 </r>
       <r>     4.8225     0.0453     1.9278 </r>
       <r>     4.8571     0.1498     1.9329 </r>
       <r>     4.8916     0.4163     1.9473 </r>
       <r>     4.9261     0.9204     1.9791 </r>
       <r>     4.9607     1.6135     2.0348 </r>
       <r>     4.9952     2.2426     2.1123 </r>
       <r>     5.0298     2.4712     2.1977 </r>
       <r>     5.0643     2.1590     2.2723 </r>
       <r>     5.0989     1.4958     2.3239 </r>
       <r>     5.1334     0.8231     2.3524 </r>
       <r>     5.1680     0.3646     2.3650 </r>
       <r>     5.2025     0.1445     2.3700 </r>
       <r>     5.2371     0.0832     2.3728 </r>
       <r>     5.2716     0.0988     2.3763 </r>
       <r>     5.3061     0.1351     2.3809 </r>
       <r>     5.3407     0.1554     2.3863 </r>
       <r>     5.3752     0.1436     2.3913 </r>
       <r>     5.4098     0.1109     2.3951 </r>
       <r>     5.4443     0.0888     2.3982 </r>
       <r>     5.4789     0.1142     2.4021 </r>
       <r>     5.5134     0.2123     2.4094 </r>
       <r>     5.5480     0.3746     2.4224 </r>
       <r>     5.5825     0.5404     2.4410 </r>
       <r>     5.6171     0.6202     2.4625 </r>
       <r>     5.6516     0.5638     2.4819 </r>
       <r>     5.6861     0.4056     2.4959 </r>
       <r>     5.7207     0.2309     2.5039 </r>
       <r>     5.7552     0.1040     2.5075 </r>
       <r>     5.7898     0.0371     2.5088 </r>
       <r>     5.8243     0.0105     2.5092 </r>
       <r>     5.8589     0.0023     2.5092 </r>
       <r>     5.8934     0.0004     2.5093 </r>
       <r>     5.9280     0.0001     2.5093 </r>
       <r>     5.9625     0.0000     2.5093 </r>
       <r>     5.9970     0.0002     2.5093 </r>
       <r>     6.0316     0.0010     2.5093 </r>
       <r>     6.0661     0.0052     2.5095 </r>
       <r>     6.1007     0.0205     2.5102 </r>
       <r>     6.1352     0.0646     2.5124 </r>
       <r>     6.1698     0.1609     2.5180 </r>
       <r>     6.2043     0.3169     2.5289 </r>
       <r>     6.2389     0.4940     2.5460 </r>
       <r>     6.2734     0.6094     2.5670 </r>
       <r>     6.3080     0.5949     2.5876 </r>
       <r>     6.3425     0.4599     2.6035 </r>
       <r>     6.3770     0.2831     2.6133 </r>
       <r>     6.4116     0.1455     2.6183 </r>
       <r>     6.4461     0.0867     2.6213 </r>
       <r>     6.4807     0.1148     2.6252 </r>
       <r>     6.5152     0.2289     2.6332 </r>
       <r>     6.5498     0.4122     2.6474 </r>
       <r>     6.5843     0.6184     2.6688 </r>
       <r>     6.6189     0.8010     2.6964 </r>
       <r>     6.6534     0.9629     2.7297 </r>
       <r>     6.6880     1.1384     2.7690 </r>
       <r>     6.7225     1.3001     2.8139 </r>
       <r>     6.7570     1.3335     2.8600 </r>
       <r>     6.7916     1.1517     2.8998 </r>
       <r>     6.8261     0.8082     2.9277 </r>
       <r>     6.8607     0.4536     2.9434 </r>
       <r>     6.8952     0.2023     2.9504 </r>
       <r>     6.9298     0.0715     2.9528 </r>
       <r>     6.9643     0.0200     2.9535 </r>
       <r>     6.9989     0.0044     2.9537 </r>
       <r>     7.0334     0.0008     2.9537 </r>
       <r>     7.0679     0.0001     2.9537 </r>
       <r>     7.1025     0.0000     2.9537 </r>
       <r>     7.1370     0.0000     2.9537 </r>
       <r>     7.1716     0.0000     2.9537 </r>
       <r>     7.2061     0.0002     2.9537 </r>
       <r>     7.2407     0.0015     2.9538 </r>
       <r>     7.2752     0.0071     2.9540 </r>
       <r>     7.3098     0.0267     2.9549 </r>
       <r>     7.3443     0.0800     2.9577 </r>
       <r>     7.3789     0.1895     2.9642 </r>
       <r>     7.4134     0.3551     2.9765 </r>
       <r>     7.4479     0.5267     2.9947 </r>
       <r>     7.4825     0.6182     3.0161 </r>
       <r>     7.5170     0.5743     3.0359 </r>
       <r>     7.5516     0.4221     3.0505 </r>
       <r>     7.5861     0.2456     3.0590 </r>
       <r>     7.6207     0.1130     3.0629 </r>
       <r>     7.6552     0.0412     3.0643 </r>
       <r>     7.6898     0.0119     3.0647 </r>
       <r>     7.7243     0.0028     3.0648 </r>
       <r>     7.7589     0.0012     3.0648 </r>
       <r>     7.7934     0.0037     3.0650 </r>
       <r>     7.8279     0.0143     3.0655 </r>
       <r>     7.8625     0.0446     3.0670 </r>
       <r>     7.8970     0.1102     3.0708 </r>
       <r>     7.9316     0.2154     3.0783 </r>
       <r>     7.9661     0.3330     3.0898 </r>
       <r>     8.0007     0.4075     3.1038 </r>
       <r>     8.0352     0.3946     3.1175 </r>
       <r>     8.0698     0.3024     3.1279 </r>
       <r>     8.1043     0.1834     3.1342 </r>
       <r>     8.1388     0.0883     3.1373 </r>
       <r>     8.1734     0.0353     3.1385 </r>
       <r>     8.2079     0.0194     3.1392 </r>
       <r>     8.2425     0.0403     3.1406 </r>
       <r>     8.2770     0.1216     3.1448 </r>
       <r>     8.3116     0.3062     3.1554 </r>
       <r>     8.3461     0.6124     3.1765 </r>
       <r>     8.3807     0.9714     3.2101 </r>
       <r>     8.4152     1.2273     3.2525 </r>
       <r>     8.4498     1.2530     3.2958 </r>
       <r>     8.4843     1.0789     3.3330 </r>
       <r>     8.5188     0.8682     3.3630 </r>
       <r>     8.5534     0.7497     3.3889 </r>
       <r>     8.5879     0.7079     3.4134 </r>
       <r>     8.6225     0.6423     3.4356 </r>
       <r>     8.6570     0.4988     3.4528 </r>
       <r>     8.6916     0.3147     3.4637 </r>
       <r>     8.7261     0.1584     3.4691 </r>
       <r>     8.7607     0.0633     3.4713 </r>
       <r>     8.7952     0.0201     3.4720 </r>
       <r>     8.8298     0.0060     3.4722 </r>
       <r>     8.8643     0.0067     3.4725 </r>
       <r>     8.8988     0.0251     3.4733 </r>
       <r>     8.9334     0.0858     3.4763 </r>
       <r>     8.9679     0.2335     3.4844 </r>
       <r>     9.0025     0.5030     3.5017 </r>
       <r>     9.0370     0.8574     3.5313 </r>
       <r>     9.0716     1.1564     3.5713 </r>
       <r>     9.1061     1.2343     3.6139 </r>
       <r>     9.1407     1.0427     3.6500 </r>
       <r>     9.1752     0.6970     3.6740 </r>
       <r>     9.2097     0.3687     3.6868 </r>
       <r>     9.2443     0.1544     3.6921 </r>
       <r>     9.2788     0.0512     3.6939 </r>
       <r>     9.3134     0.0141     3.6944 </r>
       <r>     9.3479     0.0071     3.6946 </r>
       <r>     9.3825     0.0211     3.6953 </r>
       <r>     9.4170     0.0785     3.6980 </r>
       <r>     9.4516     0.2356     3.7062 </r>
       <r>     9.4861     0.5598     3.7255 </r>
       <r>     9.5207     1.0533     3.7619 </r>
       <r>     9.5552     1.5690     3.8161 </r>
       <r>     9.5897     1.8507     3.8800 </r>
       <r>     9.6243     1.7285     3.9398 </r>
       <r>     9.6588     1.2782     3.9839 </r>
       <r>     9.6934     0.7484     4.0098 </r>
       <r>     9.7279     0.3469     4.0217 </r>
       <r>     9.7625     0.1273     4.0261 </r>
       <r>     9.7970     0.0370     4.0274 </r>
       <r>     9.8316     0.0085     4.0277 </r>
       <r>     9.8661     0.0015     4.0278 </r>
       <r>     9.9007     0.0002     4.0278 </r>
       <r>     9.9352     0.0000     4.0278 </r>
       <r>     9.9697     0.0000     4.0278 </r>
       <r>    10.0043     0.0000     4.0278 </r>
       <r>    10.0388     0.0003     4.0278 </r>
       <r>    10.0734     0.0017     4.0278 </r>
       <r>    10.1079     0.0091     4.0282 </r>
       <r>    10.1425     0.0382     4.0295 </r>
       <r>    10.1770     0.1276     4.0339 </r>
       <r>    10.2116     0.3421     4.0457 </r>
       <r>    10.2461     0.7413     4.0713 </r>
       <r>    10.2806     1.3058     4.1164 </r>
       <r>    10.3152     1.8826     4.1815 </r>
       <r>    10.3497     2.2336     4.2586 </r>
       <r>    10.3843     2.1875     4.3342 </r>
       <r>    10.4188     1.7682     4.3953 </r>
       <r>    10.4534     1.1784     4.4360 </r>
       <r>    10.4879     0.6572     4.4587 </r>
       <r>    10.5225     0.3521     4.4708 </r>
       <r>    10.5570     0.3012     4.4812 </r>
       <r>    10.5916     0.4791     4.4978 </r>
       <r>    10.6261     0.8046     4.5256 </r>
       <r>    10.6606     1.1199     4.5643 </r>
       <r>    10.6952     1.2411     4.6071 </r>
       <r>    10.7297     1.0894     4.6448 </r>
       <r>    10.7643     0.7568     4.6709 </r>
       <r>    10.7988     0.4161     4.6853 </r>
       <r>    10.8334     0.1810     4.6916 </r>
       <r>    10.8679     0.0623     4.6937 </r>
       <r>    10.9025     0.0171     4.6943 </r>
       <r>    10.9370     0.0044     4.6945 </r>
       <r>    10.9716     0.0050     4.6946 </r>
       <r>    11.0061     0.0200     4.6953 </r>
       <r>    11.0406     0.0712     4.6978 </r>
       <r>    11.0752     0.2013     4.7047 </r>
       <r>    11.1097     0.4506     4.7203 </r>
       <r>    11.1443     0.7981     4.7479 </r>
       <r>    11.1788     1.1187     4.7865 </r>
       <r>    11.2134     1.2409     4.8294 </r>
       <r>    11.2479     1.0894     4.8670 </r>
       <r>    11.2825     0.7568     4.8932 </r>
       <r>    11.3170     0.4160     4.9075 </r>
       <r>    11.3515     0.1810     4.9138 </r>
       <r>    11.3861     0.0623     4.9159 </r>
       <r>    11.4206     0.0170     4.9165 </r>
       <r>    11.4552     0.0037     4.9166 </r>
       <r>    11.4897     0.0006     4.9167 </r>
       <r>    11.5243     0.0001     4.9167 </r>
       <r>    11.5588     0.0000     4.9167 </r>
       <r>    11.5934     0.0001     4.9167 </r>
       <r>    11.6279     0.0006     4.9167 </r>
       <r>    11.6625     0.0031     4.9168 </r>
       <r>    11.6970     0.0121     4.9172 </r>
       <r>    11.7315     0.0370     4.9185 </r>
       <r>    11.7661     0.0893     4.9216 </r>
       <r>    11.8006     0.1705     4.9275 </r>
       <r>    11.8352     0.2575     4.9364 </r>
       <r>    11.8697     0.3078     4.9470 </r>
       <r>    11.9043     0.2912     4.9571 </r>
       <r>    11.9388     0.2181     4.9646 </r>
       <r>    11.9734     0.1292     4.9691 </r>
       <r>    12.0079     0.0606     4.9712 </r>
       <r>    12.0425     0.0225     4.9719 </r>
       <r>    12.0770     0.0066     4.9722 </r>
       <r>    12.1115     0.0015     4.9722 </r>
       <r>    12.1461     0.0003     4.9722 </r>
       <r>    12.1806     0.0000     4.9722 </r>
       <r>    12.2152     0.0000     4.9722 </r>
       <r>    12.2497     0.0001     4.9722 </r>
       <r>    12.2843     0.0006     4.9722 </r>
       <r>    12.3188     0.0032     4.9724 </r>
       <r>    12.3534     0.0137     4.9728 </r>
       <r>    12.3879     0.0466     4.9744 </r>
       <r>    12.4224     0.1267     4.9788 </r>
       <r>    12.4570     0.2769     4.9884 </r>
       <r>    12.4915     0.4952     5.0055 </r>
       <r>    12.5261     0.7485     5.0313 </r>
       <r>    12.5606     1.0004     5.0659 </r>
       <r>    12.5952     1.2302     5.1084 </r>
       <r>    12.6297     1.3969     5.1567 </r>
       <r>    12.6643     1.4131     5.2055 </r>
       <r>    12.6988     1.2159     5.2475 </r>
       <r>    12.7334     0.8607     5.2772 </r>
       <r>    12.7679     0.4952     5.2943 </r>
       <r>    12.8024     0.2434     5.3027 </r>
       <r>    12.8370     0.1446     5.3077 </r>
       <r>    12.8715     0.1877     5.3142 </r>
       <r>    12.9061     0.3605     5.3267 </r>
       <r>    12.9406     0.6510     5.3491 </r>
       <r>    12.9752     1.0102     5.3840 </r>
       <r>    13.0097     1.3237     5.4298 </r>
       <r>    13.0443     1.4538     5.4800 </r>
       <r>    13.0788     1.3492     5.5266 </r>
       <r>    13.1134     1.1086     5.5649 </r>
       <r>    13.1479     0.8952     5.5958 </r>
       <r>    13.1824     0.7813     5.6228 </r>
       <r>    13.2170     0.7068     5.6472 </r>
       <r>    13.2515     0.5848     5.6674 </r>
       <r>    13.2861     0.4054     5.6814 </r>
       <r>    13.3206     0.2269     5.6893 </r>
       <r>    13.3552     0.1012     5.6928 </r>
       <r>    13.3897     0.0365     5.6940 </r>
       <r>    13.4243     0.0143     5.6945 </r>
       <r>    13.4588     0.0216     5.6953 </r>
       <r>    13.4933     0.0702     5.6977 </r>
       <r>    13.5279     0.1985     5.7046 </r>
       <r>    13.5624     0.4478     5.7200 </r>
       <r>    13.5970     0.8048     5.7478 </r>
       <r>    13.6315     1.1647     5.7881 </r>
       <r>    13.6661     1.3953     5.8363 </r>
       <r>    13.7006     1.4695     5.8870 </r>
       <r>    13.7352     1.4951     5.9387 </r>
       <r>    13.7697     1.5729     5.9930 </r>
       <r>    13.8043     1.6655     6.0506 </r>
       <r>    13.8388     1.6495     6.1075 </r>
       <r>    13.8733     1.4580     6.1579 </r>
       <r>    13.9079     1.1310     6.1970 </r>
       <r>    13.9424     0.7624     6.2233 </r>
       <r>    13.9770     0.4397     6.2385 </r>
       <r>    14.0115     0.2126     6.2458 </r>
       <r>    14.0461     0.0847     6.2488 </r>
       <r>    14.0806     0.0282     6.2497 </r>
       <r>    14.1152     0.0111     6.2501 </r>
       <r>    14.1497     0.0148     6.2506 </r>
       <r>    14.1843     0.0349     6.2518 </r>
       <r>    14.2188     0.0713     6.2543 </r>
       <r>    14.2533     0.1162     6.2583 </r>
       <r>    14.2879     0.1509     6.2635 </r>
       <r>    14.3224     0.1596     6.2690 </r>
       <r>    14.3570     0.1491     6.2742 </r>
       <r>    14.3915     0.1517     6.2794 </r>
       <r>    14.4261     0.2001     6.2863 </r>
       <r>    14.4606     0.2938     6.2965 </r>
       <r>    14.4952     0.3858     6.3098 </r>
       <r>    14.5297     0.4143     6.3241 </r>
       <r>    14.5642     0.3566     6.3365 </r>
       <r>    14.5988     0.2511     6.3451 </r>
       <r>    14.6333     0.1672     6.3509 </r>
       <r>    14.6679     0.1613     6.3565 </r>
       <r>    14.7024     0.2533     6.3652 </r>
       <r>    14.7370     0.4150     6.3796 </r>
       <r>    14.7715     0.5677     6.3992 </r>
       <r>    14.8061     0.6199     6.4206 </r>
       <r>    14.8406     0.5363     6.4391 </r>
       <r>    14.8752     0.3673     6.4518 </r>
       <r>    14.9097     0.1990     6.4587 </r>
       <r>    14.9442     0.0854     6.4616 </r>
       <r>    14.9788     0.0290     6.4626 </r>
       <r>    15.0133     0.0078     6.4629 </r>
       <r>    15.0479     0.0017     6.4630 </r>
       <r>    15.0824     0.0005     6.4630 </r>
       <r>    15.1170     0.0015     6.4630 </r>
       <r>    15.1515     0.0062     6.4632 </r>
       <r>    15.1861     0.0215     6.4640 </r>
       <r>    15.2206     0.0588     6.4660 </r>
       <r>    15.2552     0.1283     6.4704 </r>
       <r>    15.2897     0.2267     6.4783 </r>
       <r>    15.3242     0.3367     6.4899 </r>
       <r>    15.3588     0.4544     6.5056 </r>
       <r>    15.3933     0.6137     6.5268 </r>
       <r>    15.4279     0.8512     6.5562 </r>
       <r>    15.4624     1.1211     6.5949 </r>
       <r>    15.4970     1.2853     6.6393 </r>
       <r>    15.5315     1.2417     6.6822 </r>
       <r>    15.5661     1.0587     6.7188 </r>
       <r>    15.6006     0.9329     6.7510 </r>
       <r>    15.6351     0.9955     6.7854 </r>
       <r>    15.6697     1.1756     6.8260 </r>
       <r>    15.7042     1.2675     6.8698 </r>
       <r>    15.7388     1.1297     6.9088 </r>
       <r>    15.7733     0.8063     6.9367 </r>
       <r>    15.8079     0.4569     6.9525 </r>
       <r>    15.8424     0.2060     6.9596 </r>
       <r>    15.8770     0.0791     6.9623 </r>
       <r>    15.9115     0.0501     6.9641 </r>
       <r>    15.9461     0.1152     6.9680 </r>
       <r>    15.9806     0.3275     6.9794 </r>
       <r>    16.0151     0.7657     7.0058 </r>
       <r>    16.0497     1.4234     7.0550 </r>
       <r>    16.0842     2.0999     7.1275 </r>
       <r>    16.1188     2.4585     7.2124 </r>
       <r>    16.1533     2.2843     7.2914 </r>
       <r>    16.1879     1.6844     7.3495 </r>
       <r>    16.2224     0.9857     7.3836 </r>
       <r>    16.2570     0.4578     7.3994 </r>
       <r>    16.2915     0.1697     7.4053 </r>
       <r>    16.3261     0.0538     7.4071 </r>
       <r>    16.3606     0.0261     7.4080 </r>
       <r>    16.3951     0.0398     7.4094 </r>
       <r>    16.4297     0.0782     7.4121 </r>
       <r>    16.4642     0.1327     7.4167 </r>
       <r>    16.4988     0.1959     7.4235 </r>
       <r>    16.5333     0.2723     7.4329 </r>
       <r>    16.5679     0.3784     7.4459 </r>
       <r>    16.6024     0.5116     7.4636 </r>
       <r>    16.6370     0.6199     7.4850 </r>
       <r>    16.6715     0.6300     7.5068 </r>
       <r>    16.7060     0.5188     7.5247 </r>
       <r>    16.7406     0.3412     7.5365 </r>
       <r>    16.7751     0.1781     7.5426 </r>
       <r>    16.8097     0.0737     7.5452 </r>
       <r>    16.8442     0.0241     7.5460 </r>
       <r>    16.8788     0.0063     7.5462 </r>
       <r>    16.9133     0.0015     7.5463 </r>
       <r>    16.9479     0.0016     7.5463 </r>
       <r>    16.9824     0.0072     7.5466 </r>
       <r>    17.0170     0.0301     7.5476 </r>
       <r>    17.0515     0.1002     7.5511 </r>
       <r>    17.0860     0.2640     7.5602 </r>
       <r>    17.1206     0.5501     7.5792 </r>
       <r>    17.1551     0.9072     7.6106 </r>
       <r>    17.1897     1.1844     7.6515 </r>
       <r>    17.2242     1.2260     7.6938 </r>
       <r>    17.2588     1.0141     7.7289 </r>
       <r>    17.2933     0.6963     7.7529 </r>
       <r>    17.3279     0.4640     7.7689 </r>
       <r>    17.3624     0.4163     7.7833 </r>
       <r>    17.3970     0.5228     7.8014 </r>
       <r>    17.4315     0.6730     7.8246 </r>
       <r>    17.4660     0.7585     7.8508 </r>
       <r>    17.5006     0.7349     7.8762 </r>
       <r>    17.5351     0.6237     7.8978 </r>
       <r>    17.5697     0.4694     7.9140 </r>
       <r>    17.6042     0.3104     7.9247 </r>
       <r>    17.6388     0.1757     7.9308 </r>
       <r>    17.6733     0.0828     7.9336 </r>
       <r>    17.7079     0.0318     7.9347 </r>
       <r>    17.7424     0.0098     7.9351 </r>
       <r>    17.7769     0.0024     7.9352 </r>
       <r>    17.8115     0.0005     7.9352 </r>
       <r>    17.8460     0.0001     7.9352 </r>
       <r>    17.8806     0.0001     7.9352 </r>
       <r>    17.9151     0.0005     7.9352 </r>
       <r>    17.9497     0.0026     7.9353 </r>
       <r>    17.9842     0.0121     7.9357 </r>
       <r>    18.0188     0.0449     7.9373 </r>
       <r>    18.0533     0.1337     7.9419 </r>
       <r>    18.0879     0.3203     7.9529 </r>
       <r>    18.1224     0.6182     7.9743 </r>
       <r>    18.1569     0.9675     8.0077 </r>
       <r>    18.1915     1.2490     8.0509 </r>
       <r>    18.2260     1.3947     8.0991 </r>
       <r>    18.2606     1.4897     8.1505 </r>
       <r>    18.2951     1.7141     8.2097 </r>
       <r>    18.3297     2.1404     8.2837 </r>
       <r>    18.3642     2.6062     8.3737 </r>
       <r>    18.3988     2.8205     8.4711 </r>
       <r>    18.4333     2.5996     8.5609 </r>
       <r>    18.4679     2.0064     8.6303 </r>
       <r>    18.5024     1.2850     8.6746 </r>
       <r>    18.5369     0.6777     8.6981 </r>
       <r>    18.5715     0.2922     8.7082 </r>
       <r>    18.6060     0.1023     8.7117 </r>
       <r>    18.6406     0.0290     8.7127 </r>
       <r>    18.6751     0.0066     8.7129 </r>
       <r>    18.7097     0.0012     8.7130 </r>
       <r>    18.7442     0.0002     8.7130 </r>
       <r>    18.7788     0.0004     8.7130 </r>
       <r>    18.8133     0.0023     8.7131 </r>
       <r>    18.8478     0.0108     8.7134 </r>
       <r>    18.8824     0.0400     8.7148 </r>
       <r>    18.9169     0.1170     8.7189 </r>
       <r>    18.9515     0.2710     8.7282 </r>
       <r>    18.9860     0.4966     8.7454 </r>
       <r>    19.0206     0.7203     8.7703 </r>
       <r>    19.0551     0.8268     8.7988 </r>
       <r>    19.0897     0.7511     8.8248 </r>
       <r>    19.1242     0.5399     8.8434 </r>
       <r>    19.1588     0.3072     8.8540 </r>
       <r>    19.1933     0.1383     8.8588 </r>
       <r>    19.2278     0.0492     8.8605 </r>
       <r>    19.2624     0.0139     8.8610 </r>
       <r>    19.2969     0.0031     8.8611 </r>
       <r>    19.3315     0.0006     8.8611 </r>
       <r>    19.3660     0.0003     8.8611 </r>
       <r>    19.4006     0.0014     8.8612 </r>
       <r>    19.4351     0.0067     8.8614 </r>
       <r>    19.4697     0.0256     8.8623 </r>
       <r>    19.5042     0.0774     8.8650 </r>
       <r>    19.5388     0.1847     8.8713 </r>
       <r>    19.5733     0.3490     8.8834 </r>
       <r>    19.6078     0.5217     8.9014 </r>
       <r>    19.6424     0.6172     8.9227 </r>
       <r>    19.6769     0.5779     8.9427 </r>
       <r>    19.7115     0.4282     8.9575 </r>
       <r>    19.7460     0.2511     8.9662 </r>
       <r>    19.7806     0.1166     8.9702 </r>
       <r>    19.8151     0.0433     8.9717 </r>
       <r>    19.8497     0.0154     8.9722 </r>
       <r>    19.8842     0.0172     8.9728 </r>
       <r>    19.9187     0.0547     8.9747 </r>
       <r>    19.9533     0.1619     8.9803 </r>
       <r>    19.9878     0.3822     8.9935 </r>
       <r>    20.0224     0.7144     9.0182 </r>
       <r>    20.0569     1.0567     9.0547 </r>
       <r>    20.0915     1.2370     9.0974 </r>
       <r>    20.1260     1.1460     9.1370 </r>
       <r>    20.1606     0.8402     9.1660 </r>
       <r>    20.1951     0.4875     9.1829 </r>
       <r>    20.2297     0.2238     9.1906 </r>
       <r>    20.2642     0.0813     9.1934 </r>
       <r>    20.2987     0.0236     9.1942 </r>
       <r>    20.3333     0.0066     9.1945 </r>
       <r>    20.3678     0.0073     9.1947 </r>
       <r>    20.4024     0.0253     9.1956 </r>
       <r>    20.4369     0.0800     9.1983 </r>
       <r>    20.4715     0.2035     9.2054 </r>
       <r>    20.5060     0.4171     9.2198 </r>
       <r>    20.5406     0.6934     9.2437 </r>
       <r>    20.5751     0.9419     9.2763 </r>
       <r>    20.6097     1.0550     9.3127 </r>
       <r>    20.6442     0.9843     9.3467 </r>
       <r>    20.6787     0.7760     9.3735 </r>
       <r>    20.7133     0.5393     9.3922 </r>
       <r>    20.7478     0.3907     9.4057 </r>
       <r>    20.7824     0.4146     9.4200 </r>
       <r>    20.8169     0.6303     9.4418 </r>
       <r>    20.8515     0.9528     9.4747 </r>
       <r>    20.8860     1.2022     9.5162 </r>
       <r>    20.9206     1.2136     9.5581 </r>
       <r>    20.9551     0.9717     9.5917 </r>
       <r>    20.9896     0.6160     9.6130 </r>
       <r>    21.0242     0.3091     9.6237 </r>
       <r>    21.0587     0.1227     9.6279 </r>
       <r>    21.0933     0.0385     9.6292 </r>
       <r>    21.1278     0.0096     9.6296 </r>
       <r>    21.1624     0.0019     9.6296 </r>
       <r>    21.1969     0.0007     9.6296 </r>
       <r>    21.2315     0.0025     9.6297 </r>
       <r>    21.2660     0.0115     9.6301 </r>
       <r>    21.3006     0.0433     9.6316 </r>
       <r>    21.3351     0.1317     9.6362 </r>
       <r>    21.3696     0.3261     9.6474 </r>
       <r>    21.4042     0.6617     9.6703 </r>
       <r>    21.4387     1.1046     9.7085 </r>
       <r>    21.4733     1.5208     9.7610 </r>
       <r>    21.5078     1.7256     9.8206 </r>
       <r>    21.5424     1.6109     9.8763 </r>
       <r>    21.5769     1.2389     9.9191 </r>
       <r>    21.6115     0.7971     9.9466 </r>
       <r>    21.6460     0.4516     9.9622 </r>
       <r>    21.6806     0.2542     9.9710 </r>
       <r>    21.7151     0.1738     9.9770 </r>
       <r>    21.7496     0.1838     9.9833 </r>
       <r>    21.7842     0.3010     9.9937 </r>
       <r>    21.8187     0.5486    10.0127 </r>
       <r>    21.8533     0.8884    10.0434 </r>
       <r>    21.8878     1.2101    10.0852 </r>
       <r>    21.9224     1.4223    10.1343 </r>
       <r>    21.9569     1.5480    10.1878 </r>
       <r>    21.9915     1.6845    10.2460 </r>
       <r>    22.0260     1.8679    10.3105 </r>
       <r>    22.0605     2.0237    10.3804 </r>
       <r>    22.0951     2.0391    10.4508 </r>
       <r>    22.1296     1.8454    10.5146 </r>
       <r>    22.1642     1.4564    10.5649 </r>
       <r>    22.1987     0.9740    10.5986 </r>
       <r>    22.2333     0.5385    10.6172 </r>
       <r>    22.2678     0.2419    10.6255 </r>
       <r>    22.3024     0.0873    10.6285 </r>
       <r>    22.3369     0.0254    10.6294 </r>
       <r>    22.3715     0.0076    10.6297 </r>
       <r>    22.4060     0.0105    10.6300 </r>
       <r>    22.4405     0.0384    10.6314 </r>
       <r>    22.4751     0.1220    10.6356 </r>
       <r>    22.5096     0.3077    10.6462 </r>
       <r>    22.5442     0.6141    10.6674 </r>
       <r>    22.5787     0.9699    10.7009 </r>
       <r>    22.6133     1.2125    10.7428 </r>
       <r>    22.6478     1.2012    10.7843 </r>
       <r>    22.6824     0.9489    10.8171 </r>
       <r>    22.7169     0.6164    10.8384 </r>
       <r>    22.7515     0.3773    10.8514 </r>
       <r>    22.7860     0.3042    10.8619 </r>
       <r>    22.8205     0.3621    10.8744 </r>
       <r>    22.8551     0.4700    10.8907 </r>
       <r>    22.8896     0.5682    10.9103 </r>
       <r>    22.9242     0.6452    10.9326 </r>
       <r>    22.9587     0.7041    10.9569 </r>
       <r>    22.9933     0.7169    10.9817 </r>
       <r>    23.0278     0.6441    11.0039 </r>
       <r>    23.0624     0.5014    11.0212 </r>
       <r>    23.0969     0.3795    11.0343 </r>
       <r>    23.1314     0.3898    11.0478 </r>
       <r>    23.1660     0.5859    11.0681 </r>
       <r>    23.2005     0.9071    11.0994 </r>
       <r>    23.2351     1.1853    11.1403 </r>
       <r>    23.2696     1.2564    11.1837 </r>
       <r>    23.3042     1.1103    11.2221 </r>
       <r>    23.3387     0.9182    11.2538 </r>
       <r>    23.3733     0.8792    11.2842 </r>
       <r>    23.4078     1.0329    11.3199 </r>
       <r>    23.4424     1.2218    11.3621 </r>
       <r>    23.4769     1.2395    11.4049 </r>
       <r>    23.5114     1.0208    11.4402 </r>
       <r>    23.5460     0.6853    11.4638 </r>
       <r>    23.5805     0.4166    11.4782 </r>
       <r>    23.6151     0.3302    11.4896 </r>
       <r>    23.6496     0.4357    11.5047 </r>
       <r>    23.6842     0.6587    11.5274 </r>
       <r>    23.7187     0.8736    11.5576 </r>
       <r>    23.7533     0.9584    11.5907 </r>
       <r>    23.7878     0.8638    11.6206 </r>
       <r>    23.8224     0.6397    11.6427 </r>
       <r>    23.8569     0.3890    11.6561 </r>
       <r>    23.8914     0.1935    11.6628 </r>
       <r>    23.9260     0.0784    11.6655 </r>
       <r>    23.9605     0.0257    11.6664 </r>
       <r>    23.9951     0.0068    11.6666 </r>
       <r>    24.0296     0.0014    11.6667 </r>
       <r>    24.0642     0.0002    11.6667 </r>
       <r>    24.0987     0.0000    11.6667 </r>
       <r>    24.1333     0.0000    11.6667 </r>
       <r>    24.1678     0.0004    11.6667 </r>
       <r>    24.2023     0.0022    11.6668 </r>
       <r>    24.2369     0.0111    11.6671 </r>
       <r>    24.2714     0.0437    11.6687 </r>
       <r>    24.3060     0.1359    11.6733 </r>
       <r>    24.3405     0.3345    11.6849 </r>
       <r>    24.3751     0.6514    11.7074 </r>
       <r>    24.4096     1.0037    11.7421 </r>
       <r>    24.4442     1.2240    11.7844 </r>
       <r>    24.4787     1.1811    11.8252 </r>
       <r>    24.5133     0.9020    11.8563 </r>
       <r>    24.5478     0.5452    11.8752 </r>
       <r>    24.5823     0.2607    11.8842 </r>
       <r>    24.6169     0.0987    11.8876 </r>
       <r>    24.6514     0.0295    11.8886 </r>
       <r>    24.6860     0.0070    11.8888 </r>
       <r>    24.7205     0.0013    11.8889 </r>
       <r>    24.7551     0.0002    11.8889 </r>
       <r>    24.7896     0.0000    11.8889 </r>
       <r>    24.8242     0.0000    11.8889 </r>
       <r>    24.8587     0.0000    11.8889 </r>
       <r>    24.8933     0.0000    11.8889 </r>
       <r>    24.9278     0.0000    11.8889 </r>
       <r>    24.9623     0.0000    11.8889 </r>
       <r>    24.9969     0.0000    11.8889 </r>
       <r>    25.0314     0.0000    11.8889 </r>
       <r>    25.0660     0.0000    11.8889 </r>
       <r>    25.1005     0.0000    11.8889 </r>
       <r>    25.1351     0.0000    11.8889 </r>
       <r>    25.1696     0.0000    11.8889 </r>
       <r>    25.2042     0.0000    11.8889 </r>
       <r>    25.2387     0.0000    11.8889 </r>
       <r>    25.2732     0.0000    11.8889 </r>
       <r>    25.3078     0.0000    11.8889 </r>
       <r>    25.3423     0.0000    11.8889 </r>
       <r>    25.3769     0.0000    11.8889 </r>
       <r>    25.4114     0.0000    11.8889 </r>
       <r>    25.4460     0.0000    11.8889 </r>
       <r>    25.4805     0.0000    11.8889 </r>
       <r>    25.5151     0.0000    11.8889 </r>
       <r>    25.5496     0.0000    11.8889 </r>
       <r>    25.5842     0.0000    11.8889 </r>
       <r>    25.6187     0.0000    11.8889 </r>
       <r>    25.6532     0.0000    11.8889 </r>
       <r>    25.6878     0.0000    11.8889 </r>
       <r>    25.7223     0.0000    11.8889 </r>
       <r>    25.7569     0.0000    11.8889 </r>
       <r>    25.7914     0.0000    11.8889 </r>
       <r>    25.8260     0.0000    11.8889 </r>
       <r>    25.8605     0.0000    11.8889 </r>
       <r>    25.8951     0.0000    11.8889 </r>
       <r>    25.9296     0.0000    11.8889 </r>
       <r>    25.9642     0.0000    11.8889 </r>
       <r>    25.9987     0.0000    11.8889 </r>
       <r>    26.0332     0.0000    11.8889 </r>
       <r>    26.0678     0.0000    11.8889 </r>
       <r>    26.1023     0.0000    11.8889 </r>
       <r>    26.1369     0.0000    11.8889 </r>
       <r>    26.1714     0.0000    11.8889 </r>
       <r>    26.2060     0.0000    11.8889 </r>
       <r>    26.2405     0.0000    11.8889 </r>
       <r>    26.2751     0.0000    11.8889 </r>
       <r>    26.3096     0.0000    11.8889 </r>
       <r>    26.3441     0.0000    11.8889 </r>
       <r>    26.3787     0.0000    11.8889 </r>
       <r>    26.4132     0.0000    11.8889 </r>
       <r>    26.4478     0.0000    11.8889 </r>
       <r>    26.4823     0.0000    11.8889 </r>
       <r>    26.5169     0.0000    11.8889 </r>
       <r>    26.5514     0.0000    11.8889 </r>
       <r>    26.5860     0.0000    11.8889 </r>
       <r>    26.6205     0.0000    11.8889 </r>
       <r>    26.6551     0.0000    11.8889 </r>
       <r>    26.6896     0.0000    11.8889 </r>
       <r>    26.7241     0.0003    11.8889 </r>
       <r>    26.7587     0.0017    11.8890 </r>
       <r>    26.7932     0.0081    11.8892 </r>
       <r>    26.8278     0.0299    11.8903 </r>
       <r>    26.8623     0.0876    11.8933 </r>
       <r>    26.8969     0.2030    11.9003 </r>
       <r>    26.9314     0.3722    11.9132 </r>
       <r>    26.9660     0.5400    11.9318 </r>
       <r>    27.0005     0.6201    11.9532 </r>
       <r>    27.0351     0.5635    11.9727 </r>
       <r>    27.0696     0.4052    11.9867 </r>
       <r>    27.1041     0.2306    11.9947 </r>
       <r>    27.1387     0.1039    11.9983 </r>
       <r>    27.1732     0.0370    11.9995 </r>
       <r>    27.2078     0.0104    11.9999 </r>
       <r>    27.2423     0.0023    12.0000 </r>
       <r>    27.2769     0.0004    12.0000 </r>
       <r>    27.3114     0.0001    12.0000 </r>
       <r>    27.3460     0.0000    12.0000 </r>
       <r>    27.3805     0.0000    12.0000 </r>
       <r>    27.4151     0.0000    12.0000 </r>
       <r>    27.4496     0.0000    12.0000 </r>
       <r>    27.4841     0.0000    12.0000 </r>
       <r>    27.5187     0.0000    12.0000 </r>
       <r>    27.5532     0.0000    12.0000 </r>
       <r>    27.5878     0.0000    12.0000 </r>
       <r>    27.6223     0.0000    12.0000 </r>
       <r>    27.6569     0.0000    12.0000 </r>
       <r>    27.6914     0.0000    12.0000 </r>
       <r>    27.7260     0.0000    12.0000 </r>
       <r>    27.7605     0.0000    12.0000 </r>
       <r>    27.7950     0.0000    12.0000 </r>
       <r>    27.8296     0.0000    12.0000 </r>
       <r>    27.8641     0.0000    12.0000 </r>
       <r>    27.8987     0.0000    12.0000 </r>
       <r>    27.9332     0.0000    12.0000 </r>
       <r>    27.9678     0.0000    12.0000 </r>
       <r>    28.0023     0.0000    12.0000 </r>
       <r>    28.0369     0.0000    12.0000 </r>
       <r>    28.0714     0.0000    12.0000 </r>
       <r>    28.1060     0.0000    12.0000 </r>
       <r>    28.1405     0.0000    12.0000 </r>
       <r>    28.1750     0.0000    12.0000 </r>
       <r>    28.2096     0.0000    12.0000 </r>
       <r>    28.2441     0.0000    12.0000 </r>
       <r>    28.2787     0.0000    12.0000 </r>
       <r>    28.3132     0.0000    12.0000 </r>
       <r>    28.3478     0.0000    12.0000 </r>
       <r>    28.3823     0.0000    12.0000 </r>
       <r>    28.4169     0.0000    12.0000 </r>
       <r>    28.4514     0.0000    12.0000 </r>
       <r>    28.4860     0.0000    12.0000 </r>
       <r>    28.5205     0.0000    12.0000 </r>
       <r>    28.5550     0.0000    12.0000 </r>
      </set>
     </set>
    </array>
   </total>
   <partial>
    <array>
     <dimension dim="1">gridpoints</dimension>
     <dimension dim="2">spin</dimension>
     <dimension dim="3">ion</dimension>
     <field>energy</field>
     <field>    s</field>
     <field>   py</field>
     <field>   pz</field>
     <field>   px</field>
     <field>  dxy</field>
     <field>  dyz</field>
     <field>  dz2</field>
     <field>  dxz</field>
     <field>x2-y2</field>
     <set>
      <set comment="ion 1">
       <set comment="spin 1">
        <r>    -5.9556     0.0000     0.0000     0.0000     0.0000     0.0000     0.0000     0.0000     0.0000     0.0000 </r>
        <r>    -5.9210     0.0000     0.0000     0.0000     0.0000     0.0000     0.0000     0.0000     0.0000     0.0000 </r>
        <r>    -5.8865     0.0000     0.0000     0.0000     0.0000     0.0000     0.0000     0.0000     0.0000     0.0000 </r>
        <r>    -5.8519     0.0000     0.0000     0.0000     0.0000     0.0000     0.0000     0.0000     0.0000     0.0000 </r>
        <r>    -5.8174     0.0000     0.0000     0.0000     0.0000     0.0000     0.0000     0.0000     0.0000     0.0000 </r>
        <r>    -5.7829     0.0000     0.0000     0.0000     0.0000     0.0000     0.0000     0.0000     0.0000     0.0000 </r>
        <r>    -5.7483     0.0000     0.0000     0.0000     0.0000     0.0000     0.0000     0.0000     0.0000     0.0000 </r>
        <r>    -5.7138     0.0000     0.0000     0.0000     0.0000     0.0000     0.0000     0.0000     0.0000     0.0000 </r>
        <r>    -5.6792     0.0000     0.0000     0.0000     0.0000     0.0000     0.0000     0.0000     0.0000     0.0000 </r>
        <r>    -5.6447     0.0000     0.0000     0.0000     0.0000     0.0000     0.0000     0.0000     0.0000     0.0000 </r>
        <r>    -5.6101     0.0000     0.0000     0.0000     0.0000     0.0000     0.0000     0.0000     0.0000     0.0000 </r>
        <r>    -5.5756     0.0000     0.0000     0.0000     0.0000     0.0000     0.0000     0.0000     0.0000     0.0000 </r>
        <r>    -5.5410     0.0000     0.0000     0.0000     0.0000     0.0000     0.0000     0.0000     0.0000     0.0000 </r>
        <r>    -5.5065     0.0000     0.0000     0.0000     0.0000     0.0000     0.0000     0.0000     0.0000     0.0000 </r>
        <r>    -5.4719     0.0000     0.0000     0.0000     0.0000     0.0000     0.0000     0.0000     0.0000     0.0000 </r>
        <r>    -5.4374     0.0000     0.0000     0.0000     0.0000     0.0000     0.0000     0.0000     0.0000     0.0000 </r>
        <r>    -5.4029     0.0000     0.0000     0.0000     0.0000     0.0000     0.0000     0.0000     0.0000     0.0000 </r>
        <r>    -5.3683     0.0000     0.0000     0.0000     0.0000     0.0000     0.0000     0.0000     0.0000     0.0000 </r>
        <r>    -5.3338     0.0000     0.0000     0.0000     0.0000     0.0000     0.0000     0.0000     0.0000     0.0000 </r>
        <r>    -5.2992     0.0000     0.0000     0.0000     0.0000     0.0000     0.0000     0.0000     0.0000     0.0000 </r>
        <r>    -5.2647     0.0000     0.0000     0.0000     0.0000     0.0000     0.0000     0.0000     0.0000     0.0000 </r>
        <r>    -5.2301     0.0000     0.0000     0.0000     0.0000     0.0000     0.0000     0.0000     0.0000     0.0000 </r>
        <r>    -5.1956     0.0000     0.0000     0.0000     0.0000     0.0000     0.0000     0.0000     0.0000     0.0000 </r>
        <r>    -5.1610     0.0000     0.0000     0.0000     0.0000     0.0000     0.0000     0.0000     0.0000     0.0000 </r>
        <r>    -5.1265     0.0000     0.0000     0.0000     0.0000     0.0000     0.0000     0.0000     0.0000     0.0000 </r>
[...]
        <r>    28.4169     0.0000     0.0000     0.0000     0.0000     0.0000     0.0000     0.0000     0.0000     0.0000 </r>
        <r>    28.4514     0.0000     0.0000     0.0000     0.0000     0.0000     0.0000     0.0000     0.0000     0.0000 </r>
        <r>    28.4860     0.0000     0.0000     0.0000     0.0000     0.0000     0.0000     0.0000     0.0000     0.0000 </r>
        <r>    28.5205     0.0000     0.0000     0.0000     0.0000     0.0000     0.0000     0.0000     0.0000     0.0000 </r>
        <r>    28.5550     0.0000     0.0000     0.0000     0.0000     0.0000     0.0000     0.0000     0.0000     0.0000 </r>
       </set>
      </set>
     </set>
    </array>
   </partial>
  </dos>
  <projected>
   <eigenvalues>
    <array>
     <dimension dim="1">band</dimension>
     <dimension dim="2">kpoint</dimension>
     <dimension dim="3">spin</dimension>
     <field>eigene</field>
     <field>occ</field>
     <set>
      <set comment="spin 1">
       <set comment="kpoint 1">
        <r>   -4.3869    1.0000 </r>
        <r>   20.6705    0.0000 </r>
        <r>   20.6705    0.0000 </r>
        <r>   20.6705    0.0000 </r>
        <r>   21.6755    0.0000 </r>
        <r>   21.6755    0.0000 </r>
       </set>
       <set comment="kpoint 2">
        <r>   -3.5928    1.0000 </r>
        <r>   14.5070    0.0000 </r>
        <r>   19.0409    0.0000 </r>
        <r>   19.0409    0.0000 </r>
        <r>   22.8583    0.0000 </r>
        <r>   23.7706    0.0000 </r>
       </set>
       <set comment="kpoint 3">
        <r>   -1.2319    1.0000 </r>
        <r>    7.9959    1.0000 </r>
        <r>   18.2025    0.0000 </r>
        <r>   18.2025    0.0000 </r>
        <r>   21.8887    0.0000 </r>
        <r>   21.8887    0.0000 </r>
       </set>
       <set comment="kpoint 4">
        <r>    2.2927    1.0000 </r>
        <r>    3.0491    1.0000 </r>
        <r>   18.1660    0.0000 </r>
        <r>   18.1660    0.0000 </r>
        <r>   20.6201    0.0000 </r>
        <r>   20.6201    0.0000 </r>
       </set>
       <set comment="kpoint 5">
        <r>   -3.3286    1.0000 </r>
        <r>   16.6450    0.0000 </r>
        <r>   16.6450    0.0000 </r>
        <r>   18.3670    0.0000 </r>
        <r>   18.4401    0.0000 </r>
        <r>   21.8977    0.0000 </r>
       </set>
       <set comment="kpoint 6">
        <r>   -1.4905    1.0000 </r>
        <r>   10.6760    0.0000 </r>
        <r>   15.4893    0.0000 </r>
        <r>   16.1000    0.0000 </r>
        <r>   18.3501    0.0000 </r>
        <r>   22.6116    0.0000 </r>
       </set>
       <set comment="kpoint 7">
        <r>    1.8551    1.0000 </r>
        <r>    5.0034    1.0000 </r>
        <r>   13.7953    0.0000 </r>
        <r>   15.6896    0.0000 </r>
        <r>   18.4128    0.0000 </r>
        <r>   24.4389    0.0000 </r>
       </set>
       <set comment="kpoint 8">
        <r>    0.5833    1.0000 </r>
        <r>    6.7419    1.0000 </r>
        <r>   12.6526    0.0000 </r>
        <r>   17.1944    0.0000 </r>
        <r>   20.0802    0.0000 </r>
        <r>   23.4486    0.0000 </r>
       </set>
       <set comment="kpoint 9">
        <r>   -2.2764    1.0000 </r>
        <r>   12.5335    0.0000 </r>
        <r>   13.2018    0.0000 </r>
        <r>   19.6327    0.0000 </r>
        <r>   22.9897    0.0000 </r>
        <r>   23.7132    0.0000 </r>
       </set>
       <set comment="kpoint 10">
        <r>   -0.1858    1.0000 </r>
        <r>   11.8615    0.0000 </r>
        <r>   13.8836    0.0000 </r>
        <r>   13.8836    0.0000 </r>
        <r>   15.3339    0.0000 </r>
        <r>   17.5370    0.0000 </r>
       </set>
       <set comment="kpoint 11">
        <r>    2.6416    1.0000 </r>
        <r>    8.4138    1.0000 </r>
        <r>    9.0812    1.0000 </r>
        <r>   13.6474    0.0000 </r>
        <r>   16.1156    0.0000 </r>
        <r>   20.8878    0.0000 </r>
       </set>
       <set comment="kpoint 12">
        <r>    3.8890    1.0000 </r>
        <r>    6.6005    1.0000 </r>
        <r>    7.4716    1.0000 </r>
        <r>   14.7847    0.0000 </r>
        <r>   17.4365    0.0000 </r>
        <r>   26.9864    0.0000 </r>
       </set>
       <set comment="kpoint 13">
        <r>    4.6045    1.0000 </r>
        <r>    5.3277    1.0000 </r>
        <r>   12.9556    0.0000 </r>
        <r>   12.9556    0.0000 </r>
        <r>   14.2906    0.0000 </r>
        <r>   16.4987    0.0000 </r>
       </set>
       <set comment="kpoint 14">
        <r>    0.8465    1.0000 </r>
        <r>    9.5820    0.9117 </r>
        <r>   10.3155    0.0000 </r>
        <r>   13.0345    0.0000 </r>
        <r>   21.5133    0.0000 </r>
        <r>   22.1199    0.0000 </r>
       </set>
       <set comment="kpoint 15">
        <r>    4.3705    1.0000 </r>
        <r>    5.0160    1.0000 </r>
        <r>   10.3765    0.0000 </r>
        <r>   11.1941    0.0000 </r>
        <r>   22.0264    0.0000 </r>
        <r>   23.2415    0.0000 </r>
       </set>
       <set comment="kpoint 16">
        <r>    5.6030    1.0000 </r>
        <r>    6.2699    1.0000 </r>
        <r>    8.5907    1.0000 </r>
        <r>    9.5749    0.9267 </r>
        <r>   20.5681    0.0000 </r>
        <r>   21.4534    0.0000 </r>
       </set>
      </set>
     </set>
    </array>
   </eigenvalues>
   <array>
    <dimension dim="1">ion</dimension>
    <dimension dim="2">band</dimension>
    <dimension dim="3">kpoint</dimension>
    <dimension dim="4">spin</dimension>
    <field>    s</field>
    <field>   py</field>
    <field>   pz</field>
    <field>   px</field>
    <field>  dxy</field>
    <field>  dyz</field>
    <field>  dz2</field>
    <field>  dxz</field>
    <field>x2-y2</field>
    <set>
     <set comment="spin1">
      <set comment="kpoint 1">
       <set comment="band 1">
        <r>  0.3825  0.0000  0.0000  0.0000  0.0000  0.0000  0.0000  0.0000  0.0000 </r>
       </set>
       <set comment="band 2">
        <r>  0.0000  0.1227  0.3216  0.2275  0.0000  0.0000  0.0000  0.0000  0.0000 </r>
       </set>
       <set comment="band 3">
        <r>  0.0000  0.3271  0.1259  0.2188  0.0000  0.0000  0.0000  0.0000  0.0000 </r>
       </set>
       <set comment="band 4">
        <r>  0.0000  0.2221  0.2243  0.2255  0.0000  0.0000  0.0000  0.0000  0.0000 </r>
       </set>
       <set comment="band 5">
        <r>  0.0000  0.0000  0.0000  0.0000  0.0000  0.0000  0.0000  0.0000  0.0000 </r>
       </set>
       <set comment="band 6">
        <r>  0.0000  0.0000  0.0000  0.0000  0.0000  0.0000  0.0000  0.0000  0.0000 </r>
       </set>
      </set>
      <set comment="kpoint 2">
       <set comment="band 1">
        <r>  0.3650  0.0065  0.0065  0.0065  0.0000  0.0000  0.0000  0.0000  0.0000 </r>
       </set>
       <set comment="band 2">
        <r>  0.0509  0.1012  0.1012  0.1012  0.0000  0.0000  0.0000  0.0000  0.0000 </r>
       </set>
       <set comment="band 3">
        <r>  0.0000  0.2309  0.0000  0.2309  0.0000  0.0000  0.0000  0.0000  0.0000 </r>
       </set>
       <set comment="band 4">
        <r>  0.0000  0.0770  0.3078  0.0769  0.0000  0.0000  0.0000  0.0000  0.0000 </r>
       </set>
       <set comment="band 5">
        <r>  0.0837  0.0576  0.0576  0.0576  0.0000  0.0000  0.0000  0.0000  0.0000 </r>
       </set>
       <set comment="band 6">
        <r>  0.0000  0.0366  0.1492  0.0387  0.0000  0.0000  0.0000  0.0000  0.0000 </r>
       </set>
      </set>
      <set comment="kpoint 3">
       <set comment="band 1">
        <r>  0.3201  0.0230  0.0230  0.0230  0.0000  0.0000  0.0000  0.0000  0.0000 </r>
       </set>
       <set comment="band 2">
        <r>  0.1213  0.0804  0.0804  0.0804  0.0000  0.0000  0.0000  0.0000  0.0000 </r>
       </set>
       <set comment="band 3">
        <r>  0.0000  0.2603  0.0000  0.2603  0.0000  0.0000  0.0000  0.0000  0.0000 </r>
       </set>
       <set comment="band 4">
        <r>  0.0000  0.0868  0.3471  0.0868  0.0000  0.0000  0.0000  0.0000  0.0000 </r>
       </set>
       <set comment="band 5">
        <r>  0.0000  0.0436  0.0000  0.0434  0.0000  0.0000  0.0000  0.0000  0.0000 </r>
       </set>
       <set comment="band 6">
        <r>  0.0000  0.0144  0.0579  0.0146  0.0000  0.0000  0.0000  0.0000  0.0000 </r>
       </set>
      </set>
      <set comment="kpoint 4">
       <set comment="band 1">
        <r>  0.4497  0.0000  0.0000  0.0000  0.0000  0.0000  0.0000  0.0000  0.0000 </r>
       </set>
       <set comment="band 2">
        <r>  0.0000  0.1037  0.1037  0.1037  0.0000  0.0000  0.0000  0.0000  0.0000 </r>
       </set>
       <set comment="band 3">
        <r>  0.0000  0.3064  0.0000  0.3064  0.0000  0.0000  0.0000  0.0000  0.0000 </r>
       </set>
       <set comment="band 4">
        <r>  0.0000  0.1021  0.4085  0.1021  0.0000  0.0000  0.0000  0.0000  0.0000 </r>
       </set>
       <set comment="band 5">
        <r>  0.0000  0.0000  0.0000  0.0000  0.0000  0.0000  0.0000  0.0000  0.0000 </r>
       </set>
       <set comment="band 6">
        <r>  0.0000  0.0000  0.0000  0.0000  0.0000  0.0000  0.0000  0.0000  0.0000 </r>
       </set>
      </set>
      <set comment="kpoint 5">
       <set comment="band 1">
        <r>  0.3590  0.0261  0.0000  0.0000  0.0000  0.0000  0.0000  0.0000  0.0000 </r>
       </set>
       <set comment="band 2">
        <r>  0.0000  0.0000  0.2120  0.2120  0.0000  0.0000  0.0000  0.0000  0.0000 </r>
       </set>
       <set comment="band 3">
        <r>  0.0000  0.0000  0.2120  0.2120  0.0000  0.0000  0.0000  0.0000  0.0000 </r>
       </set>
       <set comment="band 4">
        <r>  0.0000  0.0000  0.0000  0.0000  0.0000  0.0000  0.0000  0.0000  0.0000 </r>
       </set>
       <set comment="band 5">
        <r>  0.1558  0.5247  0.0000  0.0000  0.0000  0.0000  0.0000  0.0000  0.0000 </r>
       </set>
       <set comment="band 6">
        <r>  0.0130  0.0032  0.0000  0.0000  0.0000  0.0000  0.0000  0.0000  0.0000 </r>
       </set>
      </set>
      <set comment="kpoint 6">
       <set comment="band 1">
        <r>  0.3215  0.0554  0.0057  0.0057  0.0000  0.0000  0.0000  0.0000  0.0000 </r>
       </set>
       <set comment="band 2">
        <r>  0.0881  0.0430  0.1149  0.1149  0.0000  0.0000  0.0000  0.0000  0.0000 </r>
       </set>
       <set comment="band 3">
        <r>  0.0000  0.0000  0.2204  0.2204  0.0000  0.0000  0.0000  0.0000  0.0000 </r>
       </set>
       <set comment="band 4">
        <r>  0.1219  0.3388  0.0185  0.0185  0.0000  0.0000  0.0000  0.0000  0.0000 </r>
       </set>
       <set comment="band 5">
        <r>  0.0338  0.0010  0.0026  0.0026  0.0000  0.0000  0.0000  0.0000  0.0000 </r>
       </set>
       <set comment="band 6">
        <r>  0.0192  0.0374  0.0991  0.0991  0.0000  0.0000  0.0000  0.0000  0.0000 </r>
       </set>
      </set>
      <set comment="kpoint 7">
       <set comment="band 1">
        <r>  0.2872  0.0825  0.0147  0.0147  0.0000  0.0000  0.0000  0.0000  0.0000 </r>
       </set>
       <set comment="band 2">
        <r>  0.1383  0.0354  0.0937  0.0937  0.0000  0.0000  0.0000  0.0000  0.0000 </r>
       </set>
       <set comment="band 3">
        <r>  0.1030  0.2466  0.0352  0.0352  0.0000  0.0000  0.0000  0.0000  0.0000 </r>
       </set>
       <set comment="band 4">
        <r>  0.0000  0.0000  0.2271  0.2271  0.0000  0.0000  0.0000  0.0000  0.0000 </r>
       </set>
       <set comment="band 5">
        <r>  0.0809  0.0162  0.0090  0.0090  0.0000  0.0000  0.0000  0.0000  0.0000 </r>
       </set>
       <set comment="band 6">
        <r>  0.0000  0.0000  0.0736  0.0736  0.0000  0.0000  0.0000  0.0000  0.0000 </r>
       </set>
      </set>
      <set comment="kpoint 8">
       <set comment="band 1">
        <r>  0.2910  0.0044  0.0486  0.0486  0.0000  0.0000  0.0000  0.0000  0.0000 </r>
       </set>
       <set comment="band 2">
        <r>  0.1277  0.1369  0.0489  0.0489  0.0000  0.0000  0.0000  0.0000  0.0000 </r>
       </set>
       <set comment="band 3">
        <r>  0.1028  0.1768  0.0600  0.0600  0.0000  0.0000  0.0000  0.0000  0.0000 </r>
       </set>
       <set comment="band 4">
        <r>  0.0000  0.0000  0.2373  0.2373  0.0000  0.0000  0.0000  0.0000  0.0000 </r>
       </set>
       <set comment="band 5">
        <r>  0.0749  0.0073  0.0323  0.0323  0.0000  0.0000  0.0000  0.0000  0.0000 </r>
       </set>
       <set comment="band 6">
        <r>  0.0000  0.0000  0.0635  0.0635  0.0000  0.0000  0.0000  0.0000  0.0000 </r>
       </set>
      </set>
      <set comment="kpoint 9">
       <set comment="band 1">
        <r>  0.3376  0.0000  0.0247  0.0247  0.0000  0.0000  0.0000  0.0000  0.0000 </r>
       </set>
       <set comment="band 2">
        <r>  0.0000  0.2881  0.0000  0.0000  0.0000  0.0000  0.0000  0.0000  0.0000 </r>
       </set>
       <set comment="band 3">
        <r>  0.1493  0.0000  0.1549  0.1549  0.0000  0.0000  0.0000  0.0000  0.0000 </r>
       </set>
       <set comment="band 4">
        <r>  0.0000  0.0000  0.2904  0.2904  0.0000  0.0000  0.0000  0.0000  0.0000 </r>
       </set>
       <set comment="band 5">
        <r>  0.0499  0.0000  0.0552  0.0552  0.0000  0.0000  0.0000  0.0000  0.0000 </r>
       </set>
       <set comment="band 6">
        <r>  0.0000  0.0000  0.0000  0.0000  0.0000  0.0000  0.0000  0.0000  0.0000 </r>
       </set>
      </set>
      <set comment="kpoint 10">
       <set comment="band 1">
        <r>  0.2921  0.0974  0.0000  0.0000  0.0000  0.0000  0.0000  0.0000  0.0000 </r>
       </set>
       <set comment="band 2">
        <r>  0.1772  0.2697  0.0000  0.0000  0.0000  0.0000  0.0000  0.0000  0.0000 </r>
       </set>
       <set comment="band 3">
        <r>  0.0000  0.0000  0.2272  0.2272  0.0000  0.0000  0.0000  0.0000  0.0000 </r>
       </set>
       <set comment="band 4">
        <r>  0.0000  0.0000  0.2272  0.2272  0.0000  0.0000  0.0000  0.0000  0.0000 </r>
       </set>
       <set comment="band 5">
        <r>  0.0000  0.0000  0.0000  0.0000  0.0000  0.0000  0.0000  0.0000  0.0000 </r>
       </set>
       <set comment="band 6">
        <r>  0.2092  0.0348  0.0000  0.0000  0.0000  0.0000  0.0000  0.0000  0.0000 </r>
       </set>
      </set>
      <set comment="kpoint 11">
       <set comment="band 1">
        <r>  0.2375  0.1462  0.0038  0.0038  0.0000  0.0000  0.0000  0.0000  0.0000 </r>
       </set>
       <set comment="band 2">
        <r>  0.2683  0.1289  0.0383  0.0383  0.0000  0.0000  0.0000  0.0000  0.0000 </r>
       </set>
       <set comment="band 3">
        <r>  0.0124  0.0714  0.0977  0.0977  0.0000  0.0000  0.0000  0.0000  0.0000 </r>
       </set>
       <set comment="band 4">
        <r>  0.0000  0.0000  0.2303  0.2303  0.0000  0.0000  0.0000  0.0000  0.0000 </r>
       </set>
       <set comment="band 5">
        <r>  0.1168  0.0044  0.0002  0.0002  0.0000  0.0000  0.0000  0.0000  0.0000 </r>
       </set>
       <set comment="band 6">
        <r>  0.0634  0.0059  0.1014  0.1014  0.0000  0.0000  0.0000  0.0000  0.0000 </r>
       </set>
      </set>
      <set comment="kpoint 12">
       <set comment="band 1">
        <r>  0.2644  0.0000  0.0717  0.0717  0.0000  0.0000  0.0000  0.0000  0.0000 </r>
       </set>
       <set comment="band 2">
        <r>  0.0000  0.3263  0.0000  0.0000  0.0000  0.0000  0.0000  0.0000  0.0000 </r>
       </set>
       <set comment="band 3">
        <r>  0.2767  0.0000  0.0677  0.0677  0.0000  0.0000  0.0000  0.0000  0.0000 </r>
       </set>
       <set comment="band 4">
        <r>  0.0000  0.0000  0.2271  0.2271  0.0000  0.0000  0.0000  0.0000  0.0000 </r>
       </set>
       <set comment="band 5">
        <r>  0.1190  0.0000  0.0112  0.0112  0.0000  0.0000  0.0000  0.0000  0.0000 </r>
       </set>
       <set comment="band 6">
        <r>  0.0025  0.0000  0.1143  0.1143  0.0000  0.0000  0.0000  0.0000  0.0000 </r>
       </set>
      </set>
      <set comment="kpoint 13">
       <set comment="band 1">
        <r>  0.0000  0.3474  0.0000  0.0000  0.0000  0.0000  0.0000  0.0000  0.0000 </r>
       </set>
       <set comment="band 2">
        <r>  0.4521  0.0000  0.0000  0.0000  0.0000  0.0000  0.0000  0.0000  0.0000 </r>
       </set>
       <set comment="band 3">
        <r>  0.0000  0.0000  0.2343  0.2343  0.0000  0.0000  0.0000  0.0000  0.0000 </r>
       </set>
       <set comment="band 4">
        <r>  0.0000  0.0000  0.2343  0.2343  0.0000  0.0000  0.0000  0.0000  0.0000 </r>
       </set>
       <set comment="band 5">
        <r>  0.0000  0.0000  0.0000  0.0000  0.0000  0.0000  0.0000  0.0000  0.0000 </r>
       </set>
       <set comment="band 6">
        <r>  0.2790  0.0000  0.0000  0.0000  0.0000  0.0000  0.0000  0.0000  0.0000 </r>
       </set>
      </set>
      <set comment="kpoint 14">
       <set comment="band 1">
        <r>  0.2785  0.0926  0.0000  0.0204  0.0000  0.0000  0.0000  0.0000  0.0000 </r>
       </set>
       <set comment="band 2">
        <r>  0.0000  0.0000  0.3039  0.0000  0.0000  0.0000  0.0000  0.0000  0.0000 </r>
       </set>
       <set comment="band 3">
        <r>  0.2485  0.0800  0.0000  0.1522  0.0000  0.0000  0.0000  0.0000  0.0000 </r>
       </set>
       <set comment="band 4">
        <r>  0.0534  0.1954  0.0000  0.0803  0.0000  0.0000  0.0000  0.0000  0.0000 </r>
       </set>
       <set comment="band 5">
        <r>  0.0000  0.0000  0.1441  0.0000  0.0000  0.0000  0.0000  0.0000  0.0000 </r>
       </set>
       <set comment="band 6">
        <r>  0.0359  0.0392  0.0000  0.2930  0.0000  0.0000  0.0000  0.0000  0.0000 </r>
       </set>
      </set>
      <set comment="kpoint 15">
       <set comment="band 1">
        <r>  0.3793  0.0405  0.0405  0.0000  0.0000  0.0000  0.0000  0.0000  0.0000 </r>
       </set>
       <set comment="band 2">
        <r>  0.0000  0.1082  0.1082  0.0852  0.0000  0.0000  0.0000  0.0000  0.0000 </r>
       </set>
       <set comment="band 3">
        <r>  0.2254  0.1287  0.1287  0.0000  0.0000  0.0000  0.0000  0.0000  0.0000 </r>
       </set>
       <set comment="band 4">
        <r>  0.0000  0.0548  0.0548  0.1484  0.0000  0.0000  0.0000  0.0000  0.0000 </r>
       </set>
       <set comment="band 5">
        <r>  0.0000  0.0319  0.0319  0.2658  0.0000  0.0000  0.0000  0.0000  0.0000 </r>
       </set>
       <set comment="band 6">
        <r>  0.0624  0.0186  0.0186  0.0000  0.0000  0.0000  0.0000  0.0000  0.0000 </r>
       </set>
      </set>
      <set comment="kpoint 16">
       <set comment="band 1">
        <r>  0.0000  0.3365  0.0000  0.0000  0.0000  0.0000  0.0000  0.0000  0.0000 </r>
       </set>
       <set comment="band 2">
        <r>  0.4838  0.0000  0.0000  0.0193  0.0000  0.0000  0.0000  0.0000  0.0000 </r>
       </set>
       <set comment="band 3">
        <r>  0.0000  0.0000  0.3119  0.0000  0.0000  0.0000  0.0000  0.0000  0.0000 </r>
       </set>
       <set comment="band 4">
        <r>  0.1228  0.0000  0.0000  0.2268  0.0000  0.0000  0.0000  0.0000  0.0000 </r>
       </set>
       <set comment="band 5">
        <r>  0.0000  0.0000  0.1512  0.0000  0.0000  0.0000  0.0000  0.0000  0.0000 </r>
       </set>
       <set comment="band 6">
        <r>  0.0824  0.0000  0.0000  0.2652  0.0000  0.0000  0.0000  0.0000  0.0000 </r>
       </set>
      </set>
     </set>
    </set>
   </array>
  </projected>
 </calculation>
 <structure name="finalpos" >
  <crystal>
   <varray name="basis" >
    <v>       1.95000000       1.95000000       0.00000000 </v>
    <v>       0.00000000       1.95000000       1.95000000 </v>
    <v>       1.95000000       0.00000000       1.95000000 </v>
   </varray>
   <i name="volume">     14.82975000 </i>
   <varray name="rec_basis" >
    <v>       0.25641026       0.25641026      -0.25641026 </v>
    <v>      -0.25641026       0.25641026       0.25641026 </v>
    <v>       0.25641026      -0.25641026       0.25641026 </v>
   </varray>
  </crystal>
  <varray name="positions" >
   <v>       0.00000000       0.00000000       0.00000000 </v>
  </varray>
 </structure>
</modeling>
