   2   2   0   0
  0.8005150E+02  0.5430000E-09  0.5430000E-09  0.5430000E-09  0.5000000E-15
  1.000000000000000E-004
  CAR 
 Silicon                                 
      3.75494338    -11.18365464  301     -2.48178297      1.00000000
    -11.184  0.0000E+00  0.0000E+00
    -11.134  0.0000E+00  0.0000E+00
    -11.084  0.0000E+00  0.0000E+00
    -11.034  0.0000E+00  0.0000E+00
    -10.984 -0.5167E-28 -0.2573E-29
    -10.935 -0.1200E-24 -0.5978E-26
    -10.885 -0.1703E-21 -0.8487E-23
    -10.835 -0.1480E-18 -0.7378E-20
    -10.785 -0.7875E-16 -0.3929E-17
    -10.735 -0.2490E-13 -0.1244E-14
    -10.686 -0.4940E-11 -0.2472E-12
    -10.636 -0.6005E-09 -0.3015E-10
    -10.586 -0.4467E-07 -0.2254E-08
    -10.536 -0.2033E-05 -0.1035E-06
    -10.487 -0.5657E-04 -0.2920E-05
    -10.437 -0.9600E-03 -0.5073E-04
    -10.387 -0.9875E-02 -0.5425E-03
    -10.337 -0.6040E-01 -0.3550E-02
    -10.287 -0.2053E+00 -0.1377E-01
    -10.238 -0.2656E+00 -0.2700E-01
    -10.188  0.6747E+00  0.6597E-02
    -10.138  0.3877E+01  0.1996E+00
    -10.088  0.8750E+01  0.6353E+00
    -10.038  0.1176E+02  0.1221E+01
     -9.989  0.9975E+01  0.1717E+01
     -9.939  0.5095E+01  0.1971E+01
     -9.889  0.1170E+01  0.2029E+01
     -9.839 -0.2348E+00  0.2018E+01
     -9.789 -0.2572E+00  0.2005E+01
     -9.740 -0.8299E-01  0.2001E+01
     -9.690 -0.1442E-01  0.2000E+01
     -9.640 -0.1479E-02  0.2000E+01
     -9.590 -0.9184E-04  0.2000E+01
     -9.540 -0.3481E-05  0.2000E+01
     -9.491 -0.8075E-07  0.2000E+01
     -9.441 -0.1147E-08  0.2000E+01
     -9.391 -0.9983E-11  0.2000E+01
     -9.341 -0.5332E-13  0.2000E+01
     -9.291 -0.1568E-15  0.2000E+01
     -9.242  0.0000E+00  0.2000E+01
     -9.192  0.0000E+00  0.2000E+01
     -9.142  0.0000E+00  0.2000E+01
     -9.092  0.0000E+00  0.2000E+01
     -9.042  0.0000E+00  0.2000E+01
     -8.993  0.0000E+00  0.2000E+01
     -8.943  0.0000E+00  0.2000E+01
     -8.893  0.0000E+00  0.2000E+01
     -8.843  0.0000E+00  0.2000E+01
     -8.793  0.0000E+00  0.2000E+01
     -8.744  0.0000E+00  0.2000E+01
     -8.694  0.0000E+00  0.2000E+01
     -8.644  0.0000E+00  0.2000E+01
     -8.594  0.0000E+00  0.2000E+01
     -8.545  0.0000E+00  0.2000E+01
     -8.495  0.0000E+00  0.2000E+01
     -8.445  0.0000E+00  0.2000E+01
     -8.395  0.0000E+00  0.2000E+01
     -8.345  0.0000E+00  0.2000E+01
     -8.296  0.0000E+00  0.2000E+01
     -8.246  0.0000E+00  0.2000E+01
     -8.196  0.0000E+00  0.2000E+01
     -8.146  0.0000E+00  0.2000E+01
     -8.096  0.0000E+00  0.2000E+01
     -8.047  0.0000E+00  0.2000E+01
     -7.997  0.0000E+00  0.2000E+01
     -7.947  0.0000E+00  0.2000E+01
     -7.897  0.0000E+00  0.2000E+01
     -7.847  0.0000E+00  0.2000E+01
     -7.798  0.0000E+00  0.2000E+01
     -7.748  0.0000E+00  0.2000E+01
     -7.698 -0.2439E-28  0.2000E+01
     -7.648 -0.6047E-25  0.2000E+01
     -7.598 -0.9125E-22  0.2000E+01
     -7.549 -0.8424E-19  0.2000E+01
     -7.499 -0.4759E-16  0.2000E+01
     -7.449 -0.1601E-13  0.2000E+01
     -7.399 -0.3362E-11  0.2000E+01
     -7.349 -0.4333E-09  0.2000E+01
     -7.300 -0.3418E-07  0.2000E+01
     -7.250 -0.1649E-05  0.2000E+01
     -7.200 -0.4864E-04  0.2000E+01
     -7.150 -0.8733E-03  0.2000E+01
     -7.100 -0.9452E-02  0.1999E+01
     -7.051 -0.6008E-01  0.1996E+01
     -7.001 -0.2061E+00  0.1986E+01
     -6.951 -0.2394E+00  0.1974E+01
     -6.901  0.7984E+00  0.2014E+01
     -6.851  0.3885E+01  0.2208E+01
     -6.802  0.7868E+01  0.2599E+01
     -6.752  0.9819E+01  0.3088E+01
     -6.702  0.8484E+01  0.3511E+01
     -6.652  0.5464E+01  0.3783E+01
     -6.602  0.2844E+01  0.3924E+01
     -6.553  0.1251E+01  0.3987E+01
     -6.503  0.3803E+00  0.4006E+01
     -6.453 -0.3616E-02  0.4006E+01
     -6.403 -0.6942E-01  0.4002E+01
     -6.354 -0.3274E-01  0.4000E+01
     -6.304 -0.7573E-02  0.4000E+01
     -6.254 -0.9992E-03  0.4000E+01
     -6.204 -0.7866E-04  0.4000E+01
     -6.154 -0.3765E-05  0.4000E+01
     -6.105 -0.1106E-06  0.4000E+01
     -6.055 -0.2000E-08  0.4000E+01
     -6.005 -0.2230E-10  0.4000E+01
     -5.955 -0.1530E-12  0.4000E+01
     -5.905 -0.5922E-15  0.4000E+01
     -5.856  0.0000E+00  0.4000E+01
     -5.806  0.0000E+00  0.4000E+01
     -5.756  0.0000E+00  0.4000E+01
     -5.706  0.0000E+00  0.4000E+01
     -5.656  0.0000E+00  0.4000E+01
     -5.607  0.0000E+00  0.4000E+01
     -5.557  0.0000E+00  0.4000E+01
     -5.507  0.0000E+00  0.4000E+01
     -5.457  0.0000E+00  0.4000E+01
     -5.407  0.0000E+00  0.4000E+01
     -5.358  0.0000E+00  0.4000E+01
     -5.308  0.0000E+00  0.4000E+01
     -5.258  0.0000E+00  0.4000E+01
     -5.208  0.0000E+00  0.4000E+01
     -5.158  0.0000E+00  0.4000E+01
     -5.109  0.0000E+00  0.4000E+01
     -5.059  0.0000E+00  0.4000E+01
     -5.009  0.0000E+00  0.4000E+01
     -4.959  0.0000E+00  0.4000E+01
     -4.909  0.0000E+00  0.4000E+01
     -4.860  0.0000E+00  0.4000E+01
     -4.810  0.0000E+00  0.4000E+01
     -4.760  0.0000E+00  0.4000E+01
     -4.710  0.0000E+00  0.4000E+01
     -4.660  0.0000E+00  0.4000E+01
     -4.611  0.0000E+00  0.4000E+01
     -4.561  0.0000E+00  0.4000E+01
     -4.511  0.0000E+00  0.4000E+01
     -4.461  0.0000E+00  0.4000E+01
     -4.411  0.0000E+00  0.4000E+01
     -4.362  0.0000E+00  0.4000E+01
     -4.312  0.0000E+00  0.4000E+01
     -4.262  0.0000E+00  0.4000E+01
     -4.212  0.0000E+00  0.4000E+01
     -4.163  0.0000E+00  0.4000E+01
     -4.113  0.0000E+00  0.4000E+01
     -4.063  0.0000E+00  0.4000E+01
     -4.013 -0.1509E-28  0.4000E+01
     -3.963 -0.3881E-25  0.4000E+01
     -3.914 -0.6033E-22  0.4000E+01
     -3.864 -0.5727E-19  0.4000E+01
     -3.814 -0.3324E-16  0.4000E+01
     -3.764 -0.1147E-13  0.4000E+01
     -3.714 -0.2479E-11  0.4000E+01
     -3.665 -0.3287E-09  0.4000E+01
     -3.615 -0.2670E-07  0.4000E+01
     -3.565 -0.1329E-05  0.4000E+01
     -3.515 -0.4038E-04  0.4000E+01
     -3.465 -0.7446E-03  0.4000E+01
     -3.416 -0.8212E-02  0.4000E+01
     -3.366 -0.5232E-01  0.3997E+01
     -3.316 -0.1740E+00  0.3988E+01
     -3.266 -0.1661E+00  0.3980E+01
     -3.216  0.7796E+00  0.4019E+01
     -3.167  0.3226E+01  0.4179E+01
     -3.117  0.5938E+01  0.4475E+01
     -3.067  0.7076E+01  0.4827E+01
     -3.017  0.6787E+01  0.5165E+01
     -2.967  0.6360E+01  0.5482E+01
     -2.918  0.5825E+01  0.5772E+01
     -2.868  0.4851E+01  0.6014E+01
     -2.818  0.4195E+01  0.6223E+01
     -2.768  0.4234E+01  0.6434E+01
     -2.718  0.4787E+01  0.6672E+01
     -2.669  0.5897E+01  0.6966E+01
     -2.619  0.6693E+01  0.7299E+01
     -2.569  0.6131E+01  0.7604E+01
     -2.519  0.4839E+01  0.7845E+01
     -2.469  0.4115E+01  0.8050E+01
     -2.420  0.4282E+01  0.8263E+01
     -2.370  0.4797E+01  0.8502E+01
     -2.320  0.5262E+01  0.8764E+01
     -2.270  0.5706E+01  0.9048E+01
     -2.220  0.5756E+01  0.9335E+01
     -2.171  0.5241E+01  0.9596E+01
     -2.121  0.4414E+01  0.9816E+01
     -2.071  0.2847E+01  0.9957E+01
     -2.021  0.1009E+01  0.1001E+02
     -1.972  0.3941E-01  0.1001E+02
     -1.922 -0.1204E+00  0.1000E+02
     -1.872 -0.5742E-01  0.1000E+02
     -1.822 -0.1432E-01  0.1000E+02
     -1.772 -0.2178E-02  0.1000E+02
     -1.723 -0.2036E-03  0.1000E+02
     -1.673 -0.1158E-04  0.1000E+02
     -1.623 -0.3983E-06  0.1000E+02
     -1.573 -0.8274E-08  0.1000E+02
     -1.523 -0.1039E-09  0.1000E+02
     -1.474 -0.7892E-12  0.1000E+02
     -1.424 -0.3606E-14  0.1000E+02
     -1.374 -0.7926E-17  0.1000E+02
     -1.324 -0.2829E-14  0.1000E+02
     -1.274 -0.6253E-12  0.1000E+02
     -1.225 -0.8393E-10  0.1000E+02
     -1.175 -0.6810E-08  0.1000E+02
     -1.125 -0.3329E-06  0.1000E+02
     -1.075 -0.9754E-05  0.1000E+02
     -1.025 -0.1700E-03  0.1000E+02
     -0.976 -0.1740E-02  0.1000E+02
     -0.926 -0.1023E-01  0.9999E+01
     -0.876 -0.3297E-01  0.9998E+01
     -0.826 -0.4820E-01  0.9995E+01
     -0.776  0.3422E-01  0.9997E+01
     -0.727  0.4165E+00  0.1002E+02
     -0.677  0.1470E+01  0.1009E+02
     -0.627  0.3215E+01  0.1025E+02
     -0.577  0.4700E+01  0.1049E+02
     -0.527  0.5402E+01  0.1075E+02
     -0.478  0.5914E+01  0.1105E+02
     -0.428  0.5722E+01  0.1133E+02
     -0.378  0.3916E+01  0.1153E+02
     -0.328  0.2010E+01  0.1163E+02
     -0.278  0.2051E+01  0.1173E+02
     -0.229  0.3342E+01  0.1190E+02
     -0.179  0.3990E+01  0.1210E+02
     -0.129  0.4067E+01  0.1230E+02
     -0.079  0.4376E+01  0.1252E+02
     -0.030  0.4275E+01  0.1273E+02
      0.020  0.3627E+01  0.1291E+02
      0.070  0.3758E+01  0.1310E+02
      0.120  0.4640E+01  0.1333E+02
      0.170  0.4417E+01  0.1355E+02
      0.219  0.2797E+01  0.1369E+02
      0.269  0.1622E+01  0.1377E+02
      0.319  0.1591E+01  0.1385E+02
      0.369  0.1611E+01  0.1393E+02
      0.419  0.1063E+01  0.1398E+02
      0.468  0.4023E+00  0.1400E+02
      0.518  0.5307E-01  0.1400E+02
      0.568 -0.2977E-01  0.1400E+02
      0.618 -0.2161E-01  0.1400E+02
      0.668 -0.7131E-02  0.1400E+02
      0.717 -0.1378E-02  0.1400E+02
      0.767 -0.1588E-03  0.1400E+02
      0.817 -0.1090E-04  0.1400E+02
      0.867 -0.4454E-06  0.1400E+02
      0.917 -0.1086E-07  0.1400E+02
      0.966 -0.1628E-09  0.1400E+02
      1.016 -0.4903E-09  0.1400E+02
      1.066 -0.3404E-07  0.1400E+02
      1.116 -0.1418E-05  0.1400E+02
      1.166 -0.3498E-04  0.1400E+02
      1.215 -0.5018E-03  0.1400E+02
      1.265 -0.4030E-02  0.1400E+02
      1.315 -0.1635E-01  0.1400E+02
      1.365 -0.1955E-01  0.1400E+02
      1.415  0.7894E-01  0.1400E+02
      1.464  0.3225E+00  0.1402E+02
      1.514  0.4682E+00  0.1404E+02
      1.564  0.3131E+00  0.1406E+02
      1.614  0.1453E+00  0.1406E+02
      1.664  0.2917E+00  0.1408E+02
      1.713  0.5994E+00  0.1411E+02
      1.763  0.7966E+00  0.1415E+02
      1.813  0.9960E+00  0.1420E+02
      1.863  0.1330E+01  0.1426E+02
      1.913  0.1627E+01  0.1435E+02
      1.962  0.1956E+01  0.1444E+02
      2.012  0.2460E+01  0.1456E+02
      2.062  0.2746E+01  0.1470E+02
      2.112  0.2670E+01  0.1483E+02
      2.161  0.2532E+01  0.1496E+02
      2.211  0.2327E+01  0.1508E+02
      2.261  0.2188E+01  0.1519E+02
      2.311  0.2502E+01  0.1531E+02
      2.361  0.3158E+01  0.1547E+02
      2.410  0.3252E+01  0.1563E+02
      2.460  0.2542E+01  0.1576E+02
      2.510  0.1901E+01  0.1585E+02
      2.560  0.1465E+01  0.1592E+02
      2.610  0.8405E+00  0.1597E+02
      2.659  0.2724E+00  0.1598E+02
      2.709  0.8474E-01  0.1598E+02
      2.759  0.1414E+00  0.1599E+02
      2.809  0.1498E+00  0.1600E+02
      2.859  0.6060E-01  0.1600E+02
      2.908 -0.1751E-02  0.1600E+02
      2.958 -0.8942E-02  0.1600E+02
      3.008 -0.2908E-02  0.1600E+02
      3.058 -0.4373E-03  0.1600E+02
      3.108 -0.3570E-04  0.1600E+02
      3.157 -0.1668E-05  0.1600E+02
      3.207 -0.4567E-07  0.1600E+02
      3.257 -0.7419E-09  0.1600E+02
      3.307 -0.7205E-11  0.1600E+02
      3.357 -0.4212E-13  0.1600E+02
      3.406 -0.1045E-15  0.1600E+02
      3.456  0.0000E+00  0.1600E+02
      3.506  0.0000E+00  0.1600E+02
      3.556  0.0000E+00  0.1600E+02
      3.606  0.0000E+00  0.1600E+02
      3.655  0.0000E+00  0.1600E+02
      3.705  0.0000E+00  0.1600E+02
      3.755  0.0000E+00  0.1600E+02
