    2    2    1    1
  0.8005150E+02  0.5430000E-09  0.5430000E-09  0.5430000E-09  0.5000000E-15
  1.000000000000000E-004
  CAR 
 Silicon                                 
      8     65      8
 
  0.0000000E+00  0.0000000E+00  0.0000000E+00  0.1953125E-02
      1        -10.183655   1.000000
      2         -6.530921   1.000000
      3         -2.890441   1.000000
      4         -2.143164  -0.000009
      5         -2.143164  -0.000009
      6         -0.753094  -0.000000
      7         -0.753094  -0.000000
      8          2.100355   0.000000
 
  0.1250000E+00  0.0000000E+00  0.0000000E+00  0.1171875E-01
      1        -10.171255   1.000000
      2         -6.557525   1.000000
      3         -2.900514   1.000000
      4         -2.252699  -0.002800
      5         -2.129300  -0.000004
      6         -0.739897  -0.000000
      7         -0.586950  -0.000000
      8          2.027810   0.000000
 
  0.2500000E+00  0.0000000E+00  0.0000000E+00  0.1171875E-01
      1        -10.140597   1.000000
      2         -6.623733   1.000000
      3         -2.913707   1.000000
      4         -2.444792   0.209438
      5         -2.094965  -0.000000
      6         -0.707592  -0.000000
      7         -0.313920  -0.000000
      8          1.991357   0.000000
 
  0.3750000E+00  0.0000000E+00  0.0000000E+00  0.1171875E-01
      1        -10.108850   1.000000
      2         -6.692616   1.000000
      3         -2.894687   1.000000
      4         -2.609045   1.035127
      5         -2.059304  -0.000000
      6         -0.674686  -0.000000
      7         -0.163098  -0.000000
      8          2.021909   0.000000
 
  0.5000000E+00  0.0000000E+00  0.0000000E+00  0.5859375E-02
      1        -10.095357   1.000000
      2         -6.721902   1.000000
      3         -2.859684   1.000001
      4         -2.693841   1.005312
      5         -2.044115  -0.000000
      6         -0.660888  -0.000000
      7         -0.125550  -0.000000
      8          2.022414   0.000000
 
  0.1250000E+00  0.1250000E+00  0.0000000E+00  0.1171875E-01
      1        -10.158556   1.000000
      2         -6.587420   1.000000
      3         -2.838730   1.000003
      4         -2.390659  -0.013296
      5         -2.157978  -0.000023
      6         -0.648023  -0.000000
      7         -0.469901  -0.000000
      8          1.767534   0.000000
 
 -0.1250000E+00  0.1250000E+00  0.0000000E+00  0.1171875E-01
      1        -10.159371   1.000000
      2         -6.576819   1.000000
      3         -2.979418   1.000000
      4         -2.203621  -0.000300
      5         -2.202015  -0.000277
      6         -0.664862  -0.000000
      7         -0.527926  -0.000000
      8          2.281443   0.000000
 
  0.2500000E+00  0.1250000E+00  0.0000000E+00  0.2343750E-01
      1        -10.127999   1.000000
      2         -6.650948   1.000000
      3         -2.805840   1.000023
      4         -2.595149   1.034015
      5         -2.155591  -0.000020
      6         -0.597585  -0.000000
      7         -0.218492  -0.000000
      8          1.708014   0.000000
 
 -0.1250000E+00  0.2500000E+00  0.0000000E+00  0.2343750E-01
      1        -10.129202   1.000000
      2         -6.636342   1.000000
      3         -3.037632   1.000000
      4         -2.363319  -0.035196
      5         -2.162961  -0.000031
      6         -0.633302  -0.000000
      7         -0.276539  -0.000000
      8          2.373144   0.000000
 
  0.3750000E+00  0.1250000E+00  0.0000000E+00  0.2343750E-01
      1        -10.096722   1.000000
      2         -6.713111   1.000000
      3         -2.833613   1.000004
      4         -2.705163   1.003498
      5         -2.133486  -0.000005
      6         -0.582342  -0.000000
      7         -0.082717  -0.000000
      8          1.853921   0.000000
 
 -0.1250000E+00  0.3750000E+00  0.0000000E+00  0.2343750E-01
      1        -10.097610   1.000000
      2         -6.703072   1.000000
      3         -3.030199   1.000000
      4         -2.520368   0.801146
      5         -2.129957  -0.000004
      6         -0.610605  -0.000000
      7         -0.110186  -0.000000
      8          2.245873   0.000000
 
  0.5000000E+00  0.1250000E+00  0.0000000E+00  0.2343750E-01
      1        -10.083804   1.000000
      2         -6.735610   1.000000
      3         -2.949102   1.000000
      4         -2.646000   1.021129
      5         -2.118965  -0.000002
      6         -0.589984  -0.000000
      7         -0.057961  -0.000000
      8          2.040542   0.000000
 
  0.2500000E+00  0.2500000E+00  0.0000000E+00  0.1171875E-01
      1        -10.098077   1.000000
      2         -6.704277   1.000000
      3         -2.792048   1.000052
      4         -2.728442   1.001343
      5         -2.219318  -0.000652
      6         -0.534705  -0.000000
      7          0.003879  -0.000000
      8          1.669568   0.000000
 
 -0.2500000E+00  0.2500000E+00  0.0000000E+00  0.1171875E-01
      1        -10.099849   1.000000
      2         -6.683922   1.000000
      3         -3.133332   1.000000
      4         -2.353246  -0.034937
      5         -2.271984  -0.005751
      6         -0.582264  -0.000000
      7         -0.069681  -0.000000
      8          2.754943   0.000000
 
  0.3750000E+00  0.2500000E+00  0.0000000E+00  0.2343750E-01
      1        -10.067666   1.000000
      2         -6.754943   1.000000
      3         -2.958342   1.000000
      4         -2.679954   1.008478
      5         -2.238065  -0.001526
      6         -0.554122  -0.000000
      7          0.152474  -0.000000
      8          1.879886   0.000000
 
 -0.2500000E+00  0.3750000E+00  0.0000000E+00  0.2343750E-01
      1        -10.068977   1.000000
      2         -6.740790   1.000000
      3         -3.150729   1.000000
      4         -2.489486   0.564975
      5         -2.251651  -0.002685
      6         -0.585638  -0.000000
      7          0.110929  -0.000000
      8          2.457255   0.000000
 
  0.5000000E+00  0.2500000E+00  0.0000000E+00  0.2343750E-01
      1        -10.055318   1.000000
      2         -6.771094   1.000000
      3         -3.082979   1.000000
      4         -2.609834   1.035014
      5         -2.237216  -0.001471
      6         -0.579557  -0.000000
      7          0.178806  -0.000000
      8          2.155508   0.000000
 
  0.3750000E+00  0.3750000E+00  0.0000000E+00  0.1171875E-01
      1        -10.038049   1.000000
      2         -6.796038   1.000000
      3         -3.081164   1.000000
      4         -2.670199   1.011412
      5         -2.282525  -0.008188
      6         -0.603176  -0.000000
      7          0.341197   0.000000
      8          2.106180   0.000000
 
 -0.3750000E+00  0.3750000E+00  0.0000000E+00  0.1171875E-01
      1        -10.039012   1.000000
      2         -6.786098   1.000000
      3         -3.197218   1.000000
      4         -2.559097   0.982853
      5         -2.289382  -0.010140
      6         -0.620848  -0.000000
      7          0.312582   0.000000
      8          2.593680   0.000000
 
  0.5000000E+00  0.3750000E+00  0.0000000E+00  0.2343750E-01
      1        -10.025903   1.000000
      2         -6.809971   1.000000
      3         -3.163257   1.000000
      4         -2.645786   1.021226
      5         -2.285512  -0.009002
      6         -0.633606  -0.000000
      7          0.387634   0.000000
      8          2.378803   0.000000
 
  0.5000000E+00  0.5000000E+00  0.0000000E+00  0.5859375E-02
      1        -10.013422   1.000000
      2         -6.827072   1.000000
      3         -3.183237   1.000000
      4         -2.682464   1.007820
      5         -2.287352  -0.009531
      6         -0.659218  -0.000000
      7          0.454729   0.000000
      8          2.525751   0.000000
 
  0.1250000E+00  0.1250000E+00  0.1250000E+00  0.3906250E-02
      1        -10.145594   1.000000
      2         -6.619623   1.000000
      3         -2.729727   1.001269
      4         -2.379549  -0.027293
      5         -2.379549  -0.027293
      6         -0.442576  -0.000000
      7         -0.442576  -0.000000
      8          1.490626   0.000000
 
 -0.1250000E+00  0.1250000E+00  0.1250000E+00  0.1171875E-01
      1        -10.147195   1.000000
      2         -6.600034   1.000000
      3         -2.980375   1.000000
      4         -2.366102  -0.034679
      5         -2.141916  -0.000008
      6         -0.533687  -0.000000
      7         -0.492747  -0.000000
      8          2.142182   0.000000
 
  0.2500000E+00  0.1250000E+00  0.1250000E+00  0.1171875E-01
      1        -10.115147   1.000000
      2         -6.679840   1.000000
      3         -2.683994   1.007439
      4         -2.632693   1.027244
      5         -2.338452  -0.030493
      6         -0.426513  -0.000000
      7         -0.168324  -0.000000
      8          1.476260   0.000000
 
 -0.1250000E+00  0.2500000E+00  0.1250000E+00  0.2343750E-01
      1        -10.117089   1.000000
      2         -6.658239   1.000000
      3         -2.978428   1.000000
      4         -2.555871   0.973340
      5         -2.134412  -0.000005
      6         -0.512502  -0.000000
      7         -0.225567  -0.000000
      8          2.021337   0.000000
 
 -0.2500000E+00  0.1250000E+00  0.1250000E+00  0.1171875E-01
      1        -10.117509   1.000000
      2         -6.652663   1.000000
      3         -3.088585   1.000000
      4         -2.318008  -0.021330
      5         -2.268596  -0.005102
      6         -0.502162  -0.000000
      7         -0.271140  -0.000000
      8          2.539173   0.000000
 
  0.3750000E+00  0.1250000E+00  0.1250000E+00  0.1171875E-01
      1        -10.084352   1.000000
      2         -6.735281   1.000000
      3         -2.867533   1.000000
      4         -2.620828   1.032116
      5         -2.289070  -0.010045
      6         -0.436004  -0.000000
      7         -0.052594  -0.000000
      8          1.764659   0.000000
 
 -0.1250000E+00  0.3750000E+00  0.1250000E+00  0.2343750E-01
      1        -10.085940   1.000000
      2         -6.719416   1.000000
      3         -2.952580   1.000000
      4         -2.706864   1.003276
      5         -2.134451  -0.000005
      6         -0.503460  -0.000000
      7         -0.065642  -0.000000
      8          1.978986   0.000000
 
 -0.3750000E+00  0.1250000E+00  0.1250000E+00  0.1171875E-01
      1        -10.086093   1.000000
      2         -6.716479   1.000000
      3         -3.104772   1.000000
      4         -2.419104   0.068328
      5         -2.273439  -0.006049
      6         -0.493112  -0.000000
      7         -0.101387  -0.000000
      8          2.530131   0.000000
 
  0.5000000E+00  0.1250000E+00  0.1250000E+00  0.1171875E-01
      1        -10.072002   1.000000
      2         -6.751480   1.000000
      3         -3.022433   1.000000
      4         -2.544419   0.931492
      5         -2.261023  -0.003864
      6         -0.465884  -0.000000
      7         -0.043232  -0.000000
      8          2.147770   0.000000
 
 -0.1250000E+00  0.5000000E+00  0.1250000E+00  0.1171875E-01
      1        -10.072703   1.000000
      2         -6.745595   1.000000
      3         -2.913483   1.000000
      4         -2.788581   1.000064
      5         -2.133296  -0.000005
      6         -0.501306  -0.000000
      7         -0.024029  -0.000000
      8          1.953769   0.000000
 
  0.2500000E+00  0.2500000E+00  0.1250000E+00  0.1171875E-01
      1        -10.085351   1.000000
      2         -6.730329   1.000000
      3         -2.775579   1.000132
      4         -2.615713   1.033736
      5         -2.446649   0.222042
      6         -0.335451  -0.000000
      7          0.017168  -0.000000
      8          1.492540   0.000000
 
 -0.2500000E+00  0.2500000E+00  0.1250000E+00  0.2343750E-01
      1        -10.088211   1.000000
      2         -6.700008   1.000000
      3         -3.121053   1.000000
      4         -2.502921   0.674532
      5         -2.247993  -0.002316
      6         -0.423688  -0.000000
      7         -0.089362  -0.000000
      8          2.332296   0.000000
 
 -0.1250000E+00  0.2500000E+00  0.2500000E+00  0.1171875E-01
      1        -10.087595   1.000000
      2         -6.707754   1.000000
      3         -2.919661   1.000000
      4         -2.764770   1.000234
      5         -2.179520  -0.000082
      6         -0.411497  -0.000000
      7         -0.060192  -0.000000
      8          1.893555   0.000000
 
  0.3750000E+00  0.2500000E+00  0.1250000E+00  0.2343750E-01
      1        -10.055406   1.000000
      2         -6.775355   1.000000
      3         -2.956460   1.000000
      4         -2.598718   1.034948
      5         -2.427844   0.109042
      6         -0.373505  -0.000000
      7          0.141577  -0.000000
      8          1.829031   0.000000
 
 -0.2500000E+00  0.3750000E+00  0.1250000E+00  0.2343750E-01
      1        -10.057746   1.000000
      2         -6.752841   1.000000
      3         -3.108716   1.000000
      4         -2.656717   1.016452
      5         -2.247924  -0.002310
      6         -0.438520  -0.000000
      7          0.080683  -0.000000
      8          2.154556   0.000000
 
 -0.3750000E+00  0.1250000E+00  0.2500000E+00  0.2343750E-01
      1        -10.057517   1.000000
      2         -6.754130   1.000000
      3         -3.163695   1.000000
      4         -2.478755   0.474384
      5         -2.368088  -0.034123
      6         -0.429898  -0.000000
      7          0.074643  -0.000000
      8          2.519275   0.000000
 
 -0.1250000E+00  0.2500000E+00  0.3750000E+00  0.2343750E-01
      1        -10.057289   1.000000
      2         -6.758214   1.000000
      3         -2.930760   1.000000
      4         -2.852819   1.000001
      5         -2.224331  -0.000825
      6         -0.425821  -0.000000
      7          0.087890  -0.000000
      8          1.937898   0.000000
 
  0.5000000E+00  0.2500000E+00  0.1250000E+00  0.2343750E-01
      1        -10.043599   1.000000
      2         -6.786277   1.000000
      3         -3.097965   1.000000
      4         -2.548854   0.949231
      5         -2.398792   0.002691
      6         -0.417402  -0.000000
      7          0.145895  -0.000000
      8          2.266416   0.000000
 
 -0.2500000E+00  0.5000000E+00  0.1250000E+00  0.2343750E-01
      1        -10.044628   1.000000
      2         -6.777853   1.000000
      3         -3.038867   1.000000
      4         -2.776948   1.000122
      5         -2.243594  -0.001931
      6         -0.445355  -0.000000
      7          0.130307  -0.000000
      8          2.019102   0.000000
 
  0.3750000E+00  0.3750000E+00  0.1250000E+00  0.1171875E-01
      1        -10.026224   1.000000
      2         -6.812224   1.000000
      3         -3.059961   1.000000
      4         -2.653859   1.017652
      5         -2.434608   0.145812
      6         -0.433967  -0.000000
      7          0.309456   0.000000
      8          2.128653   0.000000
 
 -0.3750000E+00  0.3750000E+00  0.1250000E+00  0.2343750E-01
      1        -10.027947   1.000000
      2         -6.796302   1.000000
      3         -3.177319   1.000000
      4         -2.637537   1.025030
      5         -2.356043  -0.035301
      6         -0.470385  -0.000000
      7          0.251739   0.000000
      8          2.369564   0.000000
 
 -0.1250000E+00  0.3750000E+00  0.3750000E+00  0.1171875E-01
      1        -10.027781   1.000000
      2         -6.799123   1.000000
      3         -3.054490   1.000000
      4         -2.811002   1.000017
      5         -2.303878  -0.015250
      6         -0.466874  -0.000000
      7          0.246133  -0.000000
      8          2.061095   0.000000
 
  0.5000000E+00  0.3750000E+00  0.1250000E+00  0.2343750E-01
      1        -10.014583   1.000000
      2         -6.821907   1.000000
      3         -3.146272   1.000000
      4         -2.665650   1.012990
      5         -2.404635   0.017614
      6         -0.478381  -0.000000
      7          0.330465   0.000000
      8          2.424742   0.000000
 
 -0.3750000E+00  0.5000000E+00  0.1250000E+00  0.2343750E-01
      1        -10.015340   1.000000
      2         -6.815894   1.000000
      3         -3.135307   1.000000
      4         -2.751473   1.000459
      5         -2.339770  -0.031013
      6         -0.493687  -0.000000
      7          0.301182   0.000000
      8          2.204637   0.000000
 
  0.5000000E+00  0.5000000E+00  0.1250000E+00  0.1171875E-01
      1        -10.002603   1.000000
      2         -6.835142   1.000000
      3         -3.158675   1.000000
      4         -2.740703   1.000770
      5         -2.382099  -0.024796
      6         -0.515572  -0.000000
      7          0.371584   0.000000
      8          2.374871   0.000000
 
  0.2500000E+00  0.2500000E+00  0.2500000E+00  0.3906250E-02
      1        -10.056189   1.000000
      2         -6.773086   1.000000
      3         -2.723206   1.001684
      4         -2.723206   1.001684
      5         -2.592124   1.032798
      6         -0.034551  -0.000000
      7         -0.034551  -0.000000
      8          1.537620   0.000000
 
 -0.2500000E+00  0.2500000E+00  0.2500000E+00  0.1171875E-01
      1        -10.059493   1.000000
      2         -6.741096   1.000000
      3         -3.091044   1.000000
      4         -2.706514   1.003321
      5         -2.284176  -0.008631
      6         -0.146384  -0.000000
      7         -0.145366  -0.000000
      8          2.141570   0.000000
 
  0.3750000E+00  0.2500000E+00  0.2500000E+00  0.1171875E-01
      1        -10.027050   1.000000
      2         -6.809844   1.000000
      3         -2.946375   1.000000
      4         -2.661999   1.014349
      5         -2.594202   1.033678
      6         -0.129541  -0.000000
      7          0.102289  -0.000000
      8          1.914336   0.000000
 
 -0.2500000E+00  0.3750000E+00  0.2500000E+00  0.2343750E-01
      1        -10.029820   1.000000
      2         -6.785367   1.000000
      3         -3.046455   1.000000
      4         -2.856287   1.000001
      5         -2.334421  -0.028811
      6         -0.217642  -0.000000
      7          0.021895  -0.000000
      8          2.090730   0.000000
 
 -0.3750000E+00  0.2500000E+00  0.2500000E+00  0.1171875E-01
      1        -10.029482   1.000000
      2         -6.787255   1.000000
      3         -3.155813   1.000000
      4         -2.648993   1.019779
      5         -2.428680   0.113336
      6         -0.208487  -0.000000
      7          0.033973  -0.000000
      8          2.385520   0.000000
 
  0.5000000E+00  0.2500000E+00  0.2500000E+00  0.1171875E-01
      1        -10.015737   1.000000
      2         -6.816731   1.000000
      3         -3.098185   1.000000
      4         -2.629546   1.028637
      5         -2.545351   0.935383
      6         -0.204995  -0.000000
      7          0.107250  -0.000000
      8          2.344713   0.000000
 
 -0.2500000E+00  0.5000000E+00  0.2500000E+00  0.1171875E-01
      1        -10.017246   1.000000
      2         -6.804645   1.000000
      3         -2.985266   1.000000
      4         -2.951408   1.000000
      5         -2.354028  -0.035058
      6         -0.251972  -0.000000
      7          0.068013  -0.000000
      8          2.069892   0.000000
 
  0.3750000E+00  0.3750000E+00  0.2500000E+00  0.1171875E-01
      1         -9.998633   1.000000
      2         -6.840380   1.000000
      3         -3.000624   1.000000
      4         -2.771839   1.000161
      5         -2.606624   1.035374
      6         -0.159857  -0.000000
      7          0.161980  -0.000000
      8          2.261625   0.000000
 
 -0.3750000E+00  0.3750000E+00  0.2500000E+00  0.2343750E-01
      1        -10.000671   1.000000
      2         -6.822951   1.000000
      3         -3.129185   1.000000
      4         -2.801159   1.000030
      5         -2.471614   0.414434
      6         -0.217910  -0.000000
      7          0.097640  -0.000000
      8          2.328888   0.000000
 
 -0.2500000E+00  0.3750000E+00  0.3750000E+00  0.1171875E-01
      1        -10.000917   1.000000
      2         -6.821580   1.000000
      3         -2.992128   1.000000
      4         -2.984665   1.000000
      5         -2.427296   0.106259
      6         -0.223726  -0.000000
      7          0.079492  -0.000000
      8          2.166105   0.000000
 
  0.5000000E+00  0.3750000E+00  0.2500000E+00  0.2343750E-01
      1         -9.987448   1.000000
      2         -6.846736   1.000000
      3         -3.097288   1.000000
      4         -2.784407   1.000081
      5         -2.568691   1.005671
      6         -0.227704  -0.000000
      7          0.163318  -0.000000
      8          2.489163   0.000000
 
 -0.3750000E+00  0.5000000E+00  0.2500000E+00  0.2343750E-01
      1         -9.988558   1.000000
      2         -6.838086   1.000000
      3         -3.073928   1.000000
      4         -2.912647   1.000000
      5         -2.474822   0.441251
      6         -0.258744  -0.000000
      7          0.123117  -0.000000
      8          2.241055   0.000000
 
  0.5000000E+00  0.5000000E+00  0.2500000E+00  0.1171875E-01
      1         -9.975940   1.000000
      2         -6.856481   1.000000
      3         -3.096135   1.000000
      4         -2.873161   1.000000
      5         -2.547645   0.944587
      6         -0.281123  -0.000000
      7          0.173941  -0.000000
      8          2.400721   0.000000
 
  0.3750000E+00  0.3750000E+00  0.3750000E+00  0.3906250E-02
      1         -9.970873   1.000000
      2         -6.866003   1.000000
      3         -2.933830   1.000000
      4         -2.933830   1.000000
      5         -2.691725   1.005722
      6         -0.014348  -0.000000
      7         -0.014348  -0.000000
      8          2.621796   0.000000
 
 -0.3750000E+00  0.3750000E+00  0.3750000E+00  0.1171875E-01
      1         -9.972556   1.000000
      2         -6.852543   1.000000
      3         -3.075523   1.000000
      4         -2.927156   1.000000
      5         -2.571921   1.011635
      6         -0.068324  -0.000000
      7         -0.064006  -0.000000
      8          2.363953   0.000000
 
  0.5000000E+00  0.3750000E+00  0.3750000E+00  0.1171875E-01
      1         -9.959826   1.000000
      2         -6.871889   1.000000
      3         -3.048768   1.000000
      4         -2.901467   1.000000
      5         -2.678014   1.009013
      6         -0.109895  -0.000000
      7          0.003952  -0.000000
      8          2.539805   0.000000
 
 -0.3750000E+00  0.5000000E+00  0.3750000E+00  0.1171875E-01
      1         -9.960642   1.000000
      2         -6.865679   1.000000
      3         -3.021343   1.000000
      4         -3.002613   1.000000
      5         -2.610612   1.034888
      6         -0.134569  -0.000000
      7         -0.023370  -0.000000
      8          2.346412   0.000000
 
  0.5000000E+00  0.5000000E+00  0.3750000E+00  0.1171875E-01
      1         -9.948483   1.000000
      2         -6.880576   1.000000
      3         -3.028246   1.000000
      4         -2.972312   1.000000
      5         -2.691998   1.005668
      6         -0.142698  -0.000000
      7         -0.020884  -0.000000
      8          2.415503   0.000000
 
  0.5000000E+00  0.5000000E+00  0.5000000E+00  0.1953125E-02
      1         -9.936849   1.000000
      2         -6.891380   1.000000
      3         -2.998271   1.000000
      4         -2.998271   1.000000
      5         -2.757087   1.000347
      6         -0.101249  -0.000000
      7         -0.101249  -0.000000
      8          2.366120   0.000000
