       N       E                     dE             d eps       ncg     rms          rms(c)
DAV:   1     0.123964106372E+02    0.12396E+02   -0.22258E+03  1040   0.632E+02
DAV:   2    -0.518409878706E+01   -0.17581E+02   -0.17475E+02  1688   0.706E+01
DAV:   3    -0.597676261587E+01   -0.79266E+00   -0.78312E+00  1224   0.169E+01
DAV:   4    -0.598686610866E+01   -0.10103E-01   -0.10100E-01  1712   0.252E+00
DAV:   5    -0.598689859360E+01   -0.32485E-04   -0.32483E-04  1488   0.129E-01    0.242E+00
DAV:   6    -0.579803641314E+01    0.18886E+00   -0.21837E-01  1216   0.246E+00    0.126E+00
DAV:   7    -0.573986990509E+01    0.58167E-01   -0.27237E-01  1344   0.263E+00    0.171E-01
DAV:   8    -0.574051963286E+01   -0.64973E-03   -0.23876E-02  1088   0.996E-01    0.109E-01
DAV:   9    -0.574042201707E+01    0.97616E-04   -0.15123E-03  1488   0.250E-01    0.272E-02
DAV:  10    -0.574044634010E+01   -0.24323E-04   -0.16036E-04  1376   0.684E-02    0.216E-02
DAV:  11    -0.574044714303E+01   -0.80293E-06   -0.12646E-04  1592   0.549E-02    0.104E-02
DAV:  12    -0.574044422330E+01    0.29197E-05   -0.10653E-05  1232   0.175E-02    0.268E-03
DAV:  13    -0.574044419309E+01    0.30206E-07   -0.43092E-06  1136   0.100E-02
   1 F= -.57404442E+01 E0= -.57412500E+01  d E =0.241748E-02
