 vasp.6.3.2 27Jun22 (build Dec 02 2024 22:47:12) complex                        
  
 executed on             LinuxIFC date 2024.12.05  17:34:21
 running on    1 total cores
 distrk:  each k-point on    1 cores,    1 groups
 distr:  one band on NCORE=   1 cores,    1 groups


--------------------------------------------------------------------------------------------------------


 INCAR:
   SYSTEM = Silicon
   ENCUT = 520
   IBRION = 2
   ISIF = 3
   ISMEAR = 1
   SIGMA = 0.1
   KPOINTS = automatic
   PREC = Accurate
   EDIFF = 1E-6
   NELM = 60

 POTCAR:   PAW Si 02Apr1999                       
 POTCAR:   PAW Si 02Apr1999                       
   VRHFIN =Si: s2p2                                                                                 
   LEXCH  = CA                                                                                      
   EATOM  =   103.4338 eV,    7.6022 Ry                                                             
                                                                                                    
   TITEL  = PAW Si 02Apr1999                                                                        
   LULTRA =        F    use ultrasoft PP ?                                                          
   IUNSCR =        1    unscreen: 0-lin 1-nonlin 2-no                                               
   RPACOR =    1.500    partial core radius                                                         
   POMASS =   28.085; ZVAL   =    4.000    mass and valenz                                          
   RCORE  =    1.900    outmost cutoff radius                                                       
   RWIGS  =    2.480; RWIGS  =    1.312    wigner-seitz radius (au A)                               
   ENMAX  =  245.704; ENMIN  =  184.278 eV                                                          
   ICORE  =        2    local potential                                                             
   LCOR   =        T    correct aug charges                                                         
   LPAW   =        T    paw PP                                                                      
   EAUG   =  322.069                                                                                
   DEXC   =    -.006                                                                                
   RMAX   =    2.941    core radius for proj-oper                                                   
   RAUG   =    1.300    factor for augmentation sphere                                              
   RDEP   =    1.993    core radius for depl-charge                                                 
   QCUT   =   -4.250; QGAM   =    8.499    optimization parameters                                  
                                                                                                    
   Description                                                                                      
     l     E      TYP  RCUT    TYP  RCUT                                                            
     0   .000     23  1.900                                                                         
     0   .000     23  1.900                                                                         
     1   .000     23  1.900                                                                         
     1   .000     23  1.900                                                                         
     2   .000      7  1.900                                                                         
  local pseudopotential read in
  partial core-charges read in
  atomic valenz-charges read in
  non local Contribution for L=           0  read in
    real space projection operators read in
  non local Contribution for L=           0  read in
    real space projection operators read in
  non local Contribution for L=           1  read in
    real space projection operators read in
  non local Contribution for L=           1  read in
    real space projection operators read in
    PAW grid and wavefunctions read in
 
   number of l-projection  operators is LMAX  =           4
   number of lm-projection operators is LMMAX =           8
 
 PAW Si 02Apr1999                       :
 energy of atom  1       EATOM= -103.4338
 kinetic energy error for atom=    0.0005 (will be added to EATOM!!)
 
 
 POSCAR: Si
  positions in direct lattice
  No initial velocities read in
 exchange correlation table for  LEXCH =        2
   RHO(1)=    0.500       N(1)  =     2000
   RHO(2)=  100.500       N(2)  =     4000
 


--------------------------------------------------------------------------------------------------------


 ion  position               nearest neighbor table
   1  0.000  0.000  0.000-   2 2.35
   2  0.250  0.250  0.250-   1 2.35
 
  LATTYP: Found a simple cubic cell.
 ALAT       =     5.4300000000
  
  Lattice vectors:
  
 A1 = (   5.4300000000,   0.0000000000,   0.0000000000)
 A2 = (   0.0000000000,   5.4300000000,   0.0000000000)
 A3 = (   0.0000000000,   0.0000000000,   5.4300000000)


Analysis of symmetry for initial positions (statically):
=====================================================================
 Subroutine PRICEL returns:
 Original cell was already a primitive cell.
 

 Routine SETGRP: Setting up the symmetry group for a 
 simple cubic supercell.


 Subroutine GETGRP returns: Found 12 space group operations
 (whereof  6 operations were pure point group operations)
 out of a pool of 48 trial point group operations.


The static configuration has the point symmetry C_3v.
 The point group associated with its full space group is D_3d.


Analysis of symmetry for dynamics (positions and initial velocities):
=====================================================================
 Subroutine PRICEL returns:
 Original cell was already a primitive cell.
 

 Routine SETGRP: Setting up the symmetry group for a 
 simple cubic supercell.


 Subroutine GETGRP returns: Found 12 space group operations
 (whereof  6 operations were pure point group operations)
 out of a pool of 48 trial point group operations.


The dynamic configuration has the point symmetry C_3v.
 The point group associated with its full space group is D_3d.


 Subroutine INISYM returns: Found 12 space group operations
 (whereof  6 operations are pure point group operations),
 and found     1 'primitive' translations


----------------------------------------------------------------------------------------

                                     Primitive cell                                     

  volume of cell :     160.1030

  direct lattice vectors                    reciprocal lattice vectors
     5.430000000  0.000000000  0.000000000     0.184162063  0.000000000  0.000000000
     0.000000000  5.430000000  0.000000000     0.000000000  0.184162063  0.000000000
     0.000000000  0.000000000  5.430000000     0.000000000  0.000000000  0.184162063

  length of vectors
     5.430000000  5.430000000  5.430000000     0.184162063  0.184162063  0.184162063

  position of ions in fractional coordinates (direct lattice)
     0.000000000  0.000000000  0.000000000
     0.250000000  0.250000000  0.250000000

  ion indices of the primitive-cell ions
   primitive index   ion index
                 1           1
                 2           2

----------------------------------------------------------------------------------------

 
 
 KPOINTS: KPOINTS                                 

Automatic generation of k-mesh.
 Grid dimensions read from file:
 generate k-points for:    8    8    8

 Generating k-lattice:

  Cartesian coordinates                     Fractional coordinates (reciprocal lattice)
     0.023020258  0.000000000  0.000000000     0.125000000  0.000000000  0.000000000
     0.000000000  0.023020258  0.000000000     0.000000000  0.125000000  0.000000000
     0.000000000  0.000000000  0.023020258     0.000000000  0.000000000  0.125000000

  Length of vectors
     0.023020258  0.023020258  0.023020258

  Shift w.r.t. Gamma in fractional coordinates (k-lattice)
     0.000000000  0.000000000  0.000000000

 
 Subroutine IBZKPT returns following result:
 ===========================================
 
 Found     65 irreducible k-points:
 
 Following reciprocal coordinates:
            Coordinates               Weight
  0.000000  0.000000  0.000000      1.000000
  0.125000  0.000000  0.000000      6.000000
  0.250000  0.000000  0.000000      6.000000
  0.375000  0.000000  0.000000      6.000000
  0.500000  0.000000  0.000000      3.000000
  0.125000  0.125000  0.000000      6.000000
 -0.125000  0.125000  0.000000      6.000000
  0.250000  0.125000  0.000000     12.000000
 -0.125000  0.250000  0.000000     12.000000
  0.375000  0.125000  0.000000     12.000000
 -0.125000  0.375000  0.000000     12.000000
  0.500000  0.125000  0.000000     12.000000
  0.250000  0.250000  0.000000      6.000000
 -0.250000  0.250000  0.000000      6.000000
  0.375000  0.250000  0.000000     12.000000
 -0.250000  0.375000  0.000000     12.000000
  0.500000  0.250000  0.000000     12.000000
  0.375000  0.375000  0.000000      6.000000
 -0.375000  0.375000  0.000000      6.000000
  0.500000  0.375000  0.000000     12.000000
  0.500000  0.500000  0.000000      3.000000
  0.125000  0.125000  0.125000      2.000000
 -0.125000  0.125000  0.125000      6.000000
  0.250000  0.125000  0.125000      6.000000
 -0.125000  0.250000  0.125000     12.000000
 -0.250000  0.125000  0.125000      6.000000
  0.375000  0.125000  0.125000      6.000000
 -0.125000  0.375000  0.125000     12.000000
 -0.375000  0.125000  0.125000      6.000000
  0.500000  0.125000  0.125000      6.000000
 -0.125000  0.500000  0.125000      6.000000
  0.250000  0.250000  0.125000      6.000000
 -0.250000  0.250000  0.125000     12.000000
 -0.125000  0.250000  0.250000      6.000000
  0.375000  0.250000  0.125000     12.000000
 -0.250000  0.375000  0.125000     12.000000
 -0.375000  0.125000  0.250000     12.000000
 -0.125000  0.250000  0.375000     12.000000
  0.500000  0.250000  0.125000     12.000000
 -0.250000  0.500000  0.125000     12.000000
  0.375000  0.375000  0.125000      6.000000
 -0.375000  0.375000  0.125000     12.000000
 -0.125000  0.375000  0.375000      6.000000
  0.500000  0.375000  0.125000     12.000000
 -0.375000  0.500000  0.125000     12.000000
  0.500000  0.500000  0.125000      6.000000
  0.250000  0.250000  0.250000      2.000000
 -0.250000  0.250000  0.250000      6.000000
  0.375000  0.250000  0.250000      6.000000
 -0.250000  0.375000  0.250000     12.000000
 -0.375000  0.250000  0.250000      6.000000
  0.500000  0.250000  0.250000      6.000000
 -0.250000  0.500000  0.250000      6.000000
  0.375000  0.375000  0.250000      6.000000
 -0.375000  0.375000  0.250000     12.000000
 -0.250000  0.375000  0.375000      6.000000
  0.500000  0.375000  0.250000     12.000000
 -0.375000  0.500000  0.250000     12.000000
  0.500000  0.500000  0.250000      6.000000
  0.375000  0.375000  0.375000      2.000000
 -0.375000  0.375000  0.375000      6.000000
  0.500000  0.375000  0.375000      6.000000
 -0.375000  0.500000  0.375000      6.000000
  0.500000  0.500000  0.375000      6.000000
  0.500000  0.500000  0.500000      1.000000
 
 Following cartesian coordinates:
            Coordinates               Weight
  0.000000  0.000000  0.000000      1.000000
  0.125000  0.000000  0.000000      6.000000
  0.250000  0.000000  0.000000      6.000000
  0.375000  0.000000  0.000000      6.000000
  0.500000  0.000000  0.000000      3.000000
  0.125000  0.125000  0.000000      6.000000
 -0.125000  0.125000  0.000000      6.000000
  0.250000  0.125000  0.000000     12.000000
 -0.125000  0.250000  0.000000     12.000000
  0.375000  0.125000  0.000000     12.000000
 -0.125000  0.375000  0.000000     12.000000
  0.500000  0.125000  0.000000     12.000000
  0.250000  0.250000  0.000000      6.000000
 -0.250000  0.250000  0.000000      6.000000
  0.375000  0.250000  0.000000     12.000000
 -0.250000  0.375000  0.000000     12.000000
  0.500000  0.250000  0.000000     12.000000
  0.375000  0.375000  0.000000      6.000000
 -0.375000  0.375000  0.000000      6.000000
  0.500000  0.375000  0.000000     12.000000
  0.500000  0.500000  0.000000      3.000000
  0.125000  0.125000  0.125000      2.000000
 -0.125000  0.125000  0.125000      6.000000
  0.250000  0.125000  0.125000      6.000000
 -0.125000  0.250000  0.125000     12.000000
 -0.250000  0.125000  0.125000      6.000000
  0.375000  0.125000  0.125000      6.000000
 -0.125000  0.375000  0.125000     12.000000
 -0.375000  0.125000  0.125000      6.000000
  0.500000  0.125000  0.125000      6.000000
 -0.125000  0.500000  0.125000      6.000000
  0.250000  0.250000  0.125000      6.000000
 -0.250000  0.250000  0.125000     12.000000
 -0.125000  0.250000  0.250000      6.000000
  0.375000  0.250000  0.125000     12.000000
 -0.250000  0.375000  0.125000     12.000000
 -0.375000  0.125000  0.250000     12.000000
 -0.125000  0.250000  0.375000     12.000000
  0.500000  0.250000  0.125000     12.000000
 -0.250000  0.500000  0.125000     12.000000
  0.375000  0.375000  0.125000      6.000000
 -0.375000  0.375000  0.125000     12.000000
 -0.125000  0.375000  0.375000      6.000000
  0.500000  0.375000  0.125000     12.000000
 -0.375000  0.500000  0.125000     12.000000
  0.500000  0.500000  0.125000      6.000000
  0.250000  0.250000  0.250000      2.000000
 -0.250000  0.250000  0.250000      6.000000
  0.375000  0.250000  0.250000      6.000000
 -0.250000  0.375000  0.250000     12.000000
 -0.375000  0.250000  0.250000      6.000000
  0.500000  0.250000  0.250000      6.000000
 -0.250000  0.500000  0.250000      6.000000
  0.375000  0.375000  0.250000      6.000000
 -0.375000  0.375000  0.250000     12.000000
 -0.250000  0.375000  0.375000      6.000000
  0.500000  0.375000  0.250000     12.000000
 -0.375000  0.500000  0.250000     12.000000
  0.500000  0.500000  0.250000      6.000000
  0.375000  0.375000  0.375000      2.000000
 -0.375000  0.375000  0.375000      6.000000
  0.500000  0.375000  0.375000      6.000000
 -0.375000  0.500000  0.375000      6.000000
  0.500000  0.500000  0.375000      6.000000
  0.500000  0.500000  0.500000      1.000000
 


--------------------------------------------------------------------------------------------------------




 Dimension of arrays:
   k-points           NKPTS =     65   k-points in BZ     NKDIM =     65   number of bands    NBANDS=      8
   number of dos      NEDOS =    301   number of ions     NIONS =      2
   non local maximal  LDIM  =      4   non local SUM 2l+1 LMDIM =      8
   total plane-waves  NPLWV =  64000
   max r-space proj   IRMAX =      1   max aug-charges    IRDMAX=  13563
   dimension x,y,z NGX =    40 NGY =   40 NGZ =   40
   dimension x,y,z NGXF=    80 NGYF=   80 NGZF=   80
   support grid    NGXF=    80 NGYF=   80 NGZF=   80
   ions per type =               2
   NGX,Y,Z   is equivalent  to a cutoff of  12.25, 12.25, 12.25 a.u.
   NGXF,Y,Z  is equivalent  to a cutoff of  24.49, 24.49, 24.49 a.u.

 SYSTEM =  Silicon                                 
 POSCAR =  Si                                      

 Startparameter for this run:
   NWRITE =      2    write-flag & timer
   PREC   = accura    normal or accurate (medium, high low for compatibility)
   ISTART =      0    job   : 0-new  1-cont  2-samecut
   ICHARG =      2    charge: 1-file 2-atom 10-const
   ISPIN  =      1    spin polarized calculation?
   LNONCOLLINEAR =      F non collinear calculations
   LSORBIT =      F    spin-orbit coupling
   INIWAV =      1    electr: 0-lowe 1-rand  2-diag
   LASPH  =      F    aspherical Exc in radial PAW
 Electronic Relaxation 1
   ENCUT  =  520.0 eV  38.22 Ry    6.18 a.u.  10.10 10.10 10.10*2*pi/ulx,y,z
   ENINI  =  520.0     initial cutoff
   ENAUG  =  322.1 eV  augmentation charge cutoff
   NELM   =     60;   NELMIN=  2; NELMDL= -5     # of ELM steps 
   EDIFF  = 0.1E-05   stopping-criterion for ELM
   LREAL  =      F    real-space projection
   NLSPLINE    = F    spline interpolate recip. space projectors
   LCOMPAT=      F    compatible to vasp.4.4
   GGA_COMPAT  = T    GGA compatible to vasp.4.4-vasp.4.6
   LMAXPAW     = -100 max onsite density
   LMAXMIX     =    2 max onsite mixed and CHGCAR
   VOSKOWN=      0    Vosko Wilk Nusair interpolation
   ROPT   =    0.00000
 Ionic relaxation
   EDIFFG = 0.1E-04   stopping-criterion for IOM
   NSW    =      0    number of steps for IOM
   NBLOCK =      1;   KBLOCK =      1    inner block; outer block 
   IBRION =     -1    ionic relax: 0-MD 1-quasi-New 2-CG
   NFREE  =      1    steps in history (QN), initial steepest desc. (CG)
   ISIF   =      3    stress and relaxation
   IWAVPR =     10    prediction:  0-non 1-charg 2-wave 3-comb
   ISYM   =      2    0-nonsym 1-usesym 2-fastsym
   LCORR  =      T    Harris-Foulkes like correction to forces

   POTIM  = 0.5000    time-step for ionic-motion
   TEIN   =    0.0    initial temperature
   TEBEG  =    0.0;   TEEND  =   0.0 temperature during run
   SMASS  =  -3.00    Nose mass-parameter (am)
   estimated Nose-frequenzy (Omega)   =  0.10E-29 period in steps = 0.13E+47 mass=  -0.674E-27a.u.
   SCALEE = 1.0000    scale energy and forces
   NPACO  =    256;   APACO  = 10.0  distance and # of slots for P.C.
   PSTRESS=    0.0 pullay stress

  Mass of Ions in am
   POMASS =  28.09
  Ionic Valenz
   ZVAL   =   4.00
  Atomic Wigner-Seitz radii
   RWIGS  =  -1.00
  virtual crystal weights 
   VCA    =   1.00
   NELECT =       8.0000    total number of electrons
   NUPDOWN=      -1.0000    fix difference up-down

 DOS related values:
   EMIN   =  10.00;   EMAX   =-10.00  energy-range for DOS
   EFERMI =   0.00
   ISMEAR =     1;   SIGMA  =   0.10  broadening in eV -4-tet -1-fermi 0-gaus

 Electronic relaxation 2 (details)
   IALGO  =     38    algorithm
   LDIAG  =      T    sub-space diagonalisation (order eigenvalues)
   LSUBROT=      F    optimize rotation matrix (better conditioning)
   TURBO    =      0    0=normal 1=particle mesh
   IRESTART =      0    0=no restart 2=restart with 2 vectors
   NREBOOT  =      0    no. of reboots
   NMIN     =      0    reboot dimension
   EREF     =   0.00    reference energy to select bands
   IMIX   =      4    mixing-type and parameters
     AMIX     =   0.40;   BMIX     =  1.00
     AMIX_MAG =   1.60;   BMIX_MAG =  1.00
     AMIN     =   0.10
     WC   =   100.;   INIMIX=   1;  MIXPRE=   1;  MAXMIX= -45

 Intra band minimization:
   WEIMIN = 0.0000     energy-eigenvalue tresh-hold
   EBREAK =  0.31E-07  absolut break condition
   DEPER  =   0.30     relativ break condition  

   TIME   =   0.40     timestep for ELM

  volume/ion in A,a.u.               =      80.05       540.21
  Fermi-wavevector in a.u.,A,eV,Ry     =   0.602983  1.139472  4.946920  0.363588
  Thomas-Fermi vector in A             =   1.655794
 
 Write flags
   LWAVE        =      T    write WAVECAR
   LDOWNSAMPLE  =      F    k-point downsampling of WAVECAR
   LCHARG       =      T    write CHGCAR
   LVTOT        =      F    write LOCPOT, total local potential
   LVHAR        =      F    write LOCPOT, Hartree potential only
   LELF         =      F    write electronic localiz. function (ELF)
   LORBIT       =      0    0 simple, 1 ext, 2 COOP (PROOUT), +10 PAW based schemes


 Dipole corrections
   LMONO  =      F    monopole corrections only (constant potential shift)
   LDIPOL =      F    correct potential (dipole corrections)
   IDIPOL =      0    1-x, 2-y, 3-z, 4-all directions 
   EPSILON=  1.0000000 bulk dielectric constant

 Exchange correlation treatment:
   GGA     =    --    GGA type
   LEXCH   =     2    internal setting for exchange type
   LIBXC   =     F    Libxc                    
   VOSKOWN =     0    Vosko Wilk Nusair interpolation
   LHFCALC =     F    Hartree Fock is set to
   LHFONE  =     F    Hartree Fock one center treatment
   AEXX    =    0.0000 exact exchange contribution

 Linear response parameters
   LEPSILON=     F    determine dielectric tensor
   LRPA    =     F    only Hartree local field effects (RPA)
   LNABLA  =     F    use nabla operator in PAW spheres
   LVEL    =     F    velocity operator in full k-point grid
   CSHIFT  =0.1000    complex shift for real part using Kramers Kronig
   OMEGAMAX=  -1.0    maximum frequency
   DEG_THRESHOLD= 0.2000000E-02 threshold for treating states as degnerate
   RTIME   =   -0.100 relaxation time in fs
  (WPLASMAI=    0.000 imaginary part of plasma frequency in eV, 0.658/RTIME)
   DFIELD  = 0.0000000 0.0000000 0.0000000 field for delta impulse in time
 
  Optional k-point grid parameters
   LKPOINTS_OPT  =     F    use optional k-point grid
   KPOINTS_OPT_MODE=     1    mode for optional k-point grid
 
 Orbital magnetization related:
   ORBITALMAG=     F  switch on orbital magnetization
   LCHIMAG   =     F  perturbation theory with respect to B field
   DQ        =  0.001000  dq finite difference perturbation B field
   LLRAUG    =     F  two centre corrections for induced B field



--------------------------------------------------------------------------------------------------------


 Static calculation
 charge density and potential will be updated during run
 non-spin polarized calculation
 Variant of blocked Davidson
 Davidson routine will perform the subspace rotation
 perform sub-space diagonalisation
    after iterative eigenvector-optimisation
 modified Broyden-mixing scheme, WC =      100.0
 initial mixing is a Kerker type mixing with AMIX =  0.4000 and BMIX =      1.0000
 Hartree-type preconditioning will be used
 using additional bands            4
 reciprocal scheme for non local part
 use partial core corrections
 calculate Harris-corrections to forces 
   (improved forces if not selfconsistent)
 use of overlap-Matrix (Vanderbilt PP)
 Methfessel and Paxton  Order N= 1 SIGMA  =   0.10


--------------------------------------------------------------------------------------------------------


  energy-cutoff  :      520.00
  volume of cell :      160.10
      direct lattice vectors                 reciprocal lattice vectors
     5.430000000  0.000000000  0.000000000     0.184162063  0.000000000  0.000000000
     0.000000000  5.430000000  0.000000000     0.000000000  0.184162063  0.000000000
     0.000000000  0.000000000  5.430000000     0.000000000  0.000000000  0.184162063

  length of vectors
     5.430000000  5.430000000  5.430000000     0.184162063  0.184162063  0.184162063


 
 k-points in units of 2pi/SCALE and weight: KPOINTS                                 
   0.00000000  0.00000000  0.00000000       0.002
   0.12500000  0.00000000  0.00000000       0.012
   0.25000000  0.00000000  0.00000000       0.012
   0.37500000  0.00000000  0.00000000       0.012
   0.50000000  0.00000000  0.00000000       0.006
   0.12500000  0.12500000  0.00000000       0.012
  -0.12500000  0.12500000  0.00000000       0.012
   0.25000000  0.12500000  0.00000000       0.023
  -0.12500000  0.25000000  0.00000000       0.023
   0.37500000  0.12500000  0.00000000       0.023
  -0.12500000  0.37500000  0.00000000       0.023
   0.50000000  0.12500000  0.00000000       0.023
   0.25000000  0.25000000  0.00000000       0.012
  -0.25000000  0.25000000  0.00000000       0.012
   0.37500000  0.25000000  0.00000000       0.023
  -0.25000000  0.37500000  0.00000000       0.023
   0.50000000  0.25000000  0.00000000       0.023
   0.37500000  0.37500000  0.00000000       0.012
  -0.37500000  0.37500000  0.00000000       0.012
   0.50000000  0.37500000  0.00000000       0.023
   0.50000000  0.50000000  0.00000000       0.006
   0.12500000  0.12500000  0.12500000       0.004
  -0.12500000  0.12500000  0.12500000       0.012
   0.25000000  0.12500000  0.12500000       0.012
  -0.12500000  0.25000000  0.12500000       0.023
  -0.25000000  0.12500000  0.12500000       0.012
   0.37500000  0.12500000  0.12500000       0.012
  -0.12500000  0.37500000  0.12500000       0.023
  -0.37500000  0.12500000  0.12500000       0.012
   0.50000000  0.12500000  0.12500000       0.012
  -0.12500000  0.50000000  0.12500000       0.012
   0.25000000  0.25000000  0.12500000       0.012
  -0.25000000  0.25000000  0.12500000       0.023
  -0.12500000  0.25000000  0.25000000       0.012
   0.37500000  0.25000000  0.12500000       0.023
  -0.25000000  0.37500000  0.12500000       0.023
  -0.37500000  0.12500000  0.25000000       0.023
  -0.12500000  0.25000000  0.37500000       0.023
   0.50000000  0.25000000  0.12500000       0.023
  -0.25000000  0.50000000  0.12500000       0.023
   0.37500000  0.37500000  0.12500000       0.012
  -0.37500000  0.37500000  0.12500000       0.023
  -0.12500000  0.37500000  0.37500000       0.012
   0.50000000  0.37500000  0.12500000       0.023
  -0.37500000  0.50000000  0.12500000       0.023
   0.50000000  0.50000000  0.12500000       0.012
   0.25000000  0.25000000  0.25000000       0.004
  -0.25000000  0.25000000  0.25000000       0.012
   0.37500000  0.25000000  0.25000000       0.012
  -0.25000000  0.37500000  0.25000000       0.023
  -0.37500000  0.25000000  0.25000000       0.012
   0.50000000  0.25000000  0.25000000       0.012
  -0.25000000  0.50000000  0.25000000       0.012
   0.37500000  0.37500000  0.25000000       0.012
  -0.37500000  0.37500000  0.25000000       0.023
  -0.25000000  0.37500000  0.37500000       0.012
   0.50000000  0.37500000  0.25000000       0.023
  -0.37500000  0.50000000  0.25000000       0.023
   0.50000000  0.50000000  0.25000000       0.012
   0.37500000  0.37500000  0.37500000       0.004
  -0.37500000  0.37500000  0.37500000       0.012
   0.50000000  0.37500000  0.37500000       0.012
  -0.37500000  0.50000000  0.37500000       0.012
   0.50000000  0.50000000  0.37500000       0.012
   0.50000000  0.50000000  0.50000000       0.002
 
 k-points in reciprocal lattice and weights: KPOINTS                                 
   0.00000000  0.00000000  0.00000000       0.002
   0.12500000  0.00000000  0.00000000       0.012
   0.25000000  0.00000000  0.00000000       0.012
   0.37500000  0.00000000  0.00000000       0.012
   0.50000000  0.00000000  0.00000000       0.006
   0.12500000  0.12500000  0.00000000       0.012
  -0.12500000  0.12500000  0.00000000       0.012
   0.25000000  0.12500000  0.00000000       0.023
  -0.12500000  0.25000000  0.00000000       0.023
   0.37500000  0.12500000  0.00000000       0.023
  -0.12500000  0.37500000  0.00000000       0.023
   0.50000000  0.12500000  0.00000000       0.023
   0.25000000  0.25000000  0.00000000       0.012
  -0.25000000  0.25000000  0.00000000       0.012
   0.37500000  0.25000000  0.00000000       0.023
  -0.25000000  0.37500000  0.00000000       0.023
   0.50000000  0.25000000  0.00000000       0.023
   0.37500000  0.37500000  0.00000000       0.012
  -0.37500000  0.37500000  0.00000000       0.012
   0.50000000  0.37500000  0.00000000       0.023
   0.50000000  0.50000000  0.00000000       0.006
   0.12500000  0.12500000  0.12500000       0.004
  -0.12500000  0.12500000  0.12500000       0.012
   0.25000000  0.12500000  0.12500000       0.012
  -0.12500000  0.25000000  0.12500000       0.023
  -0.25000000  0.12500000  0.12500000       0.012
   0.37500000  0.12500000  0.12500000       0.012
  -0.12500000  0.37500000  0.12500000       0.023
  -0.37500000  0.12500000  0.12500000       0.012
   0.50000000  0.12500000  0.12500000       0.012
  -0.12500000  0.50000000  0.12500000       0.012
   0.25000000  0.25000000  0.12500000       0.012
  -0.25000000  0.25000000  0.12500000       0.023
  -0.12500000  0.25000000  0.25000000       0.012
   0.37500000  0.25000000  0.12500000       0.023
  -0.25000000  0.37500000  0.12500000       0.023
  -0.37500000  0.12500000  0.25000000       0.023
  -0.12500000  0.25000000  0.37500000       0.023
   0.50000000  0.25000000  0.12500000       0.023
  -0.25000000  0.50000000  0.12500000       0.023
   0.37500000  0.37500000  0.12500000       0.012
  -0.37500000  0.37500000  0.12500000       0.023
  -0.12500000  0.37500000  0.37500000       0.012
   0.50000000  0.37500000  0.12500000       0.023
  -0.37500000  0.50000000  0.12500000       0.023
   0.50000000  0.50000000  0.12500000       0.012
   0.25000000  0.25000000  0.25000000       0.004
  -0.25000000  0.25000000  0.25000000       0.012
   0.37500000  0.25000000  0.25000000       0.012
  -0.25000000  0.37500000  0.25000000       0.023
  -0.37500000  0.25000000  0.25000000       0.012
   0.50000000  0.25000000  0.25000000       0.012
  -0.25000000  0.50000000  0.25000000       0.012
   0.37500000  0.37500000  0.25000000       0.012
  -0.37500000  0.37500000  0.25000000       0.023
  -0.25000000  0.37500000  0.37500000       0.012
   0.50000000  0.37500000  0.25000000       0.023
  -0.37500000  0.50000000  0.25000000       0.023
   0.50000000  0.50000000  0.25000000       0.012
   0.37500000  0.37500000  0.37500000       0.004
  -0.37500000  0.37500000  0.37500000       0.012
   0.50000000  0.37500000  0.37500000       0.012
  -0.37500000  0.50000000  0.37500000       0.012
   0.50000000  0.50000000  0.37500000       0.012
   0.50000000  0.50000000  0.50000000       0.002
 
 position of ions in fractional coordinates (direct lattice) 
   0.00000000  0.00000000  0.00000000
   0.25000000  0.25000000  0.25000000
 
 position of ions in cartesian coordinates  (Angst):
   0.00000000  0.00000000  0.00000000
   1.35750000  1.35750000  1.35750000
 


--------------------------------------------------------------------------------------------------------


 k-point   1 :   0.0000 0.0000 0.0000  plane waves:    4337
 k-point   2 :   0.1250 0.0000 0.0000  plane waves:    4300
 k-point   3 :   0.2500 0.0000 0.0000  plane waves:    4300
 k-point   4 :   0.3750 0.0000 0.0000  plane waves:    4312
 k-point   5 :   0.5000 0.0000 0.0000  plane waves:    4292
 k-point   6 :   0.1250 0.1250 0.0000  plane waves:    4297
 k-point   7 :  -0.1250 0.1250 0.0000  plane waves:    4297
 k-point   8 :   0.2500 0.1250 0.0000  plane waves:    4305
 k-point   9 :  -0.1250 0.2500 0.0000  plane waves:    4305
 k-point  10 :   0.3750 0.1250 0.0000  plane waves:    4310
 k-point  11 :  -0.1250 0.3750 0.0000  plane waves:    4310
 k-point  12 :   0.5000 0.1250 0.0000  plane waves:    4294
 k-point  13 :   0.2500 0.2500 0.0000  plane waves:    4278
 k-point  14 :  -0.2500 0.2500 0.0000  plane waves:    4278
 k-point  15 :   0.3750 0.2500 0.0000  plane waves:    4307
 k-point  16 :  -0.2500 0.3750 0.0000  plane waves:    4307
 k-point  17 :   0.5000 0.2500 0.0000  plane waves:    4326
 k-point  18 :   0.3750 0.3750 0.0000  plane waves:    4292
 k-point  19 :  -0.3750 0.3750 0.0000  plane waves:    4292
 k-point  20 :   0.5000 0.3750 0.0000  plane waves:    4328
 k-point  21 :   0.5000 0.5000 0.0000  plane waves:    4324
 k-point  22 :   0.1250 0.1250 0.1250  plane waves:    4304
 k-point  23 :  -0.1250 0.1250 0.1250  plane waves:    4304
 k-point  24 :   0.2500 0.1250 0.1250  plane waves:    4301
 k-point  25 :  -0.1250 0.2500 0.1250  plane waves:    4301
 k-point  26 :  -0.2500 0.1250 0.1250  plane waves:    4301
 k-point  27 :   0.3750 0.1250 0.1250  plane waves:    4306
 k-point  28 :  -0.1250 0.3750 0.1250  plane waves:    4306
 k-point  29 :  -0.3750 0.1250 0.1250  plane waves:    4306
 k-point  30 :   0.5000 0.1250 0.1250  plane waves:    4294
 k-point  31 :  -0.1250 0.5000 0.1250  plane waves:    4294
 k-point  32 :   0.2500 0.2500 0.1250  plane waves:    4313
 k-point  33 :  -0.2500 0.2500 0.1250  plane waves:    4313
 k-point  34 :  -0.1250 0.2500 0.2500  plane waves:    4313
 k-point  35 :   0.3750 0.2500 0.1250  plane waves:    4308
 k-point  36 :  -0.2500 0.3750 0.1250  plane waves:    4308
 k-point  37 :  -0.3750 0.1250 0.2500  plane waves:    4308
 k-point  38 :  -0.1250 0.2500 0.3750  plane waves:    4308
 k-point  39 :   0.5000 0.2500 0.1250  plane waves:    4316
 k-point  40 :  -0.2500 0.5000 0.1250  plane waves:    4316
 k-point  41 :   0.3750 0.3750 0.1250  plane waves:    4307
 k-point  42 :  -0.3750 0.3750 0.1250  plane waves:    4307
 k-point  43 :  -0.1250 0.3750 0.3750  plane waves:    4307
 k-point  44 :   0.5000 0.3750 0.1250  plane waves:    4330
 k-point  45 :  -0.3750 0.5000 0.1250  plane waves:    4330
 k-point  46 :   0.5000 0.5000 0.1250  plane waves:    4312
 k-point  47 :   0.2500 0.2500 0.2500  plane waves:    4323
 k-point  48 :  -0.2500 0.2500 0.2500  plane waves:    4323
 k-point  49 :   0.3750 0.2500 0.2500  plane waves:    4315
 k-point  50 :  -0.2500 0.3750 0.2500  plane waves:    4315
 k-point  51 :  -0.3750 0.2500 0.2500  plane waves:    4315
 k-point  52 :   0.5000 0.2500 0.2500  plane waves:    4324
 k-point  53 :  -0.2500 0.5000 0.2500  plane waves:    4324
 k-point  54 :   0.3750 0.3750 0.2500  plane waves:    4310
 k-point  55 :  -0.3750 0.3750 0.2500  plane waves:    4310
 k-point  56 :  -0.2500 0.3750 0.3750  plane waves:    4310
 k-point  57 :   0.5000 0.3750 0.2500  plane waves:    4318
 k-point  58 :  -0.3750 0.5000 0.2500  plane waves:    4318
 k-point  59 :   0.5000 0.5000 0.2500  plane waves:    4320
 k-point  60 :   0.3750 0.3750 0.3750  plane waves:    4341
 k-point  61 :  -0.3750 0.3750 0.3750  plane waves:    4341
 k-point  62 :   0.5000 0.3750 0.3750  plane waves:    4318
 k-point  63 :  -0.3750 0.5000 0.3750  plane waves:    4318
 k-point  64 :   0.5000 0.5000 0.3750  plane waves:    4304
 k-point  65 :   0.5000 0.5000 0.5000  plane waves:    4272

 maximum and minimum number of plane-waves per node :      4341     4272

 maximum number of plane-waves:      4341
 maximum index in each direction: 
   IXMAX=   10   IYMAX=   10   IZMAX=   10
   IXMIN=  -10   IYMIN=  -10   IZMIN=  -10


 serial   3D FFT for wavefunctions
 parallel 3D FFT for charge:
    minimum data exchange during FFTs selected (reduces bandwidth)


 total amount of memory used by VASP MPI-rank0   129888. kBytes
=======================================================================

   base      :      30000. kBytes
   nonl-proj :      18197. kBytes
   fftplans  :      17864. kBytes
   grid      :      27571. kBytes
   one-center:          6. kBytes
   wavefun   :      36250. kBytes
 
     INWAV:  cpu time      0.0000: real time      0.0007
 Broyden mixing: mesh for mixing (old mesh)
   NGX = 21   NGY = 21   NGZ = 21
  (NGX  = 80   NGY  = 80   NGZ  = 80)
  gives a total of   9261 points

 initial charge density was supplied:
 charge density of overlapping atoms calculated
 number of electron       8.0000000 magnetization 
 keeping initial charge density in first step


--------------------------------------------------------------------------------------------------------


 Maximum index for augmentation-charges        13037 (set IRDMAX)


--------------------------------------------------------------------------------------------------------


 First call to EWALD:  gamma=   0.326
 Maximum number of real-space cells 3x 3x 3
 Maximum number of reciprocal cells 3x 3x 3

    FEWALD:  cpu time      0.0005: real time      0.0029


--------------------------------------- Iteration      1(   1)  ---------------------------------------


    POTLOK:  cpu time      0.0372: real time      0.0372
    SETDIJ:  cpu time      0.0015: real time      0.0015
     EDDAV:  cpu time      1.1695: real time      1.1715
       DOS:  cpu time      0.0010: real time      0.0010
    --------------------------------------------
      LOOP:  cpu time      1.2092: real time      1.2132

 eigenvalue-minimisations  :  1040
 total energy-change (2. order) : 0.1239641E+02  (-0.2225795E+03)
 number of electron       8.0000000 magnetization 
 augmentation part        8.0000000 magnetization 

 Free energy of the ion-electron system (eV)
  ---------------------------------------------------
  alpha Z        PSCENC =         0.59225545
  Ewald energy   TEWEN  =      -128.89401867
  -Hartree energ DENC   =       -51.24928277
  -exchange      EXHF   =         0.00000000
  -V(xc)+E(xc)   XCENC  =       -20.99320321
  PAW double counting   =        67.11795164      -32.28261218
  entropy T*S    EENTRO =         0.00049317
  eigenvalues    EBANDS =       -28.76169549
  atomic energy  EATOM  =       206.86652270
  Solvation  Ediel_sol  =         0.00000000
  ---------------------------------------------------
  free energy    TOTEN  =        12.39641064 eV

  energy without entropy =       12.39591747  energy(sigma->0) =       12.39624625


--------------------------------------------------------------------------------------------------------




--------------------------------------- Iteration      1(   2)  ---------------------------------------


     EDDAV:  cpu time      1.6890: real time      1.6948
       DOS:  cpu time      0.0011: real time      0.0011
    --------------------------------------------
      LOOP:  cpu time      1.6901: real time      1.6958

 eigenvalue-minimisations  :  1688
 total energy-change (2. order) :-0.1758051E+02  (-0.1747487E+02)
 number of electron       8.0000000 magnetization 
 augmentation part        8.0000000 magnetization 

 Free energy of the ion-electron system (eV)
  ---------------------------------------------------
  alpha Z        PSCENC =         0.59225545
  Ewald energy   TEWEN  =      -128.89401867
  -Hartree energ DENC   =       -51.24928277
  -exchange      EXHF   =         0.00000000
  -V(xc)+E(xc)   XCENC  =       -20.99320321
  PAW double counting   =        67.11795164      -32.28261218
  entropy T*S    EENTRO =         0.00122588
  eigenvalues    EBANDS =       -46.34293763
  atomic energy  EATOM  =       206.86652270
  Solvation  Ediel_sol  =         0.00000000
  ---------------------------------------------------
  free energy    TOTEN  =        -5.18409879 eV

  energy without entropy =       -5.18532466  energy(sigma->0) =       -5.18450741


--------------------------------------------------------------------------------------------------------




--------------------------------------- Iteration      1(   3)  ---------------------------------------


     EDDAV:  cpu time      1.3105: real time      1.3133
       DOS:  cpu time      0.0011: real time      0.0011
    --------------------------------------------
      LOOP:  cpu time      1.3116: real time      1.3146

 eigenvalue-minimisations  :  1224
 total energy-change (2. order) :-0.7926638E+00  (-0.7831150E+00)
 number of electron       8.0000000 magnetization 
 augmentation part        8.0000000 magnetization 

 Free energy of the ion-electron system (eV)
  ---------------------------------------------------
  alpha Z        PSCENC =         0.59225545
  Ewald energy   TEWEN  =      -128.89401867
  -Hartree energ DENC   =       -51.24928277
  -exchange      EXHF   =         0.00000000
  -V(xc)+E(xc)   XCENC  =       -20.99320321
  PAW double counting   =        67.11795164      -32.28261218
  entropy T*S    EENTRO =         0.00217853
  eigenvalues    EBANDS =       -47.13655411
  atomic energy  EATOM  =       206.86652270
  Solvation  Ediel_sol  =         0.00000000
  ---------------------------------------------------
  free energy    TOTEN  =        -5.97676262 eV

  energy without entropy =       -5.97894114  energy(sigma->0) =       -5.97748879


--------------------------------------------------------------------------------------------------------




--------------------------------------- Iteration      1(   4)  ---------------------------------------


     EDDAV:  cpu time      1.6909: real time      1.6941
       DOS:  cpu time      0.0010: real time      0.0010
    --------------------------------------------
      LOOP:  cpu time      1.6919: real time      1.6950

 eigenvalue-minimisations  :  1712
 total energy-change (2. order) :-0.1010349E-01  (-0.1010013E-01)
 number of electron       8.0000000 magnetization 
 augmentation part        8.0000000 magnetization 

 Free energy of the ion-electron system (eV)
  ---------------------------------------------------
  alpha Z        PSCENC =         0.59225545
  Ewald energy   TEWEN  =      -128.89401867
  -Hartree energ DENC   =       -51.24928277
  -exchange      EXHF   =         0.00000000
  -V(xc)+E(xc)   XCENC  =       -20.99320321
  PAW double counting   =        67.11795164      -32.28261218
  entropy T*S    EENTRO =         0.00212591
  eigenvalues    EBANDS =       -47.14660499
  atomic energy  EATOM  =       206.86652270
  Solvation  Ediel_sol  =         0.00000000
  ---------------------------------------------------
  free energy    TOTEN  =        -5.98686611 eV

  energy without entropy =       -5.98899202  energy(sigma->0) =       -5.98757475


--------------------------------------------------------------------------------------------------------




--------------------------------------- Iteration      1(   5)  ---------------------------------------


     EDDAV:  cpu time      1.5233: real time      1.5262
       DOS:  cpu time      0.0010: real time      0.0010
    CHARGE:  cpu time      0.1431: real time      0.1451
    MIXING:  cpu time      0.0063: real time      0.0063
    --------------------------------------------
      LOOP:  cpu time      1.6737: real time      1.6853

 eigenvalue-minimisations  :  1488
 total energy-change (2. order) :-0.3248494E-04  (-0.3248311E-04)
 number of electron       8.0000001 magnetization 
 augmentation part       -0.5685057 magnetization 

 Broyden mixing:
  rms(total) = 0.24159E+00    rms(broyden)= 0.24159E+00
  rms(prec ) = 0.50470E+00
  weight for this iteration     100.00

 Free energy of the ion-electron system (eV)
  ---------------------------------------------------
  alpha Z        PSCENC =         0.59225545
  Ewald energy   TEWEN  =      -128.89401867
  -Hartree energ DENC   =       -51.24928277
  -exchange      EXHF   =         0.00000000
  -V(xc)+E(xc)   XCENC  =       -20.99320321
  PAW double counting   =        67.11795164      -32.28261218
  entropy T*S    EENTRO =         0.00212485
  eigenvalues    EBANDS =       -47.14663641
  atomic energy  EATOM  =       206.86652270
  Solvation  Ediel_sol  =         0.00000000
  ---------------------------------------------------
  free energy    TOTEN  =        -5.98689859 eV

  energy without entropy =       -5.98902345  energy(sigma->0) =       -5.98760688


--------------------------------------------------------------------------------------------------------




--------------------------------------- Iteration      1(   6)  ---------------------------------------


    POTLOK:  cpu time      0.0327: real time      0.0414
    SETDIJ:  cpu time      0.0015: real time      0.0015
     EDDAV:  cpu time      1.3060: real time      1.3082
       DOS:  cpu time      0.0010: real time      0.0010
    CHARGE:  cpu time      0.1472: real time      0.1492
    MIXING:  cpu time      0.0048: real time      0.0048
    --------------------------------------------
      LOOP:  cpu time      1.4932: real time      1.4974

 eigenvalue-minimisations  :  1216
 total energy-change (2. order) : 0.1888622E+00  (-0.2183653E-01)
 number of electron       8.0000001 magnetization 
 augmentation part       -0.5645024 magnetization 

 Broyden mixing:
  rms(total) = 0.12619E+00    rms(broyden)= 0.12619E+00
  rms(prec ) = 0.25882E+00
  weight for this iteration     100.00

 eigenvalues of (default mixing * dielectric matrix)
  average eigenvalue GAMMA=   2.0686
  2.0686

 Free energy of the ion-electron system (eV)
  ---------------------------------------------------
  alpha Z        PSCENC =         0.59225545
  Ewald energy   TEWEN  =      -128.89401867
  -Hartree energ DENC   =       -52.42447103
  -exchange      EXHF   =         0.00000000
  -V(xc)+E(xc)   XCENC  =       -20.90581584
  PAW double counting   =        68.00940271      -33.19579408
  entropy T*S    EENTRO =         0.00246240
  eigenvalues    EBANDS =       -45.84858006
  atomic energy  EATOM  =       206.86652270
  Solvation  Ediel_sol  =         0.00000000
  ---------------------------------------------------
  free energy    TOTEN  =        -5.79803641 eV

  energy without entropy =       -5.80049882  energy(sigma->0) =       -5.79885721


--------------------------------------------------------------------------------------------------------




--------------------------------------- Iteration      1(   7)  ---------------------------------------


    POTLOK:  cpu time      0.0311: real time      0.0311
    SETDIJ:  cpu time      0.0014: real time      0.0014
     EDDAV:  cpu time      1.4037: real time      1.4059
       DOS:  cpu time      0.0010: real time      0.0010
    CHARGE:  cpu time      0.1428: real time      0.1447
    MIXING:  cpu time      0.0047: real time      0.0047
    --------------------------------------------
      LOOP:  cpu time      1.5847: real time      1.6051

 eigenvalue-minimisations  :  1344
 total energy-change (2. order) : 0.5816651E-01  (-0.2723741E-01)
 number of electron       8.0000001 magnetization 
 augmentation part       -0.5597620 magnetization 

 Broyden mixing:
  rms(total) = 0.17101E-01    rms(broyden)= 0.17101E-01
  rms(prec ) = 0.39151E-01
  weight for this iteration     100.00

 eigenvalues of (default mixing * dielectric matrix)
  average eigenvalue GAMMA=   1.8344
  1.8344  1.8344

 Free energy of the ion-electron system (eV)
  ---------------------------------------------------
  alpha Z        PSCENC =         0.59225545
  Ewald energy   TEWEN  =      -128.89401867
  -Hartree energ DENC   =       -53.56639439
  -exchange      EXHF   =         0.00000000
  -V(xc)+E(xc)   XCENC  =       -20.80054578
  PAW double counting   =        68.58779785      -33.78715918
  entropy T*S    EENTRO =         0.00235324
  eigenvalues    EBANDS =       -44.74068113
  atomic energy  EATOM  =       206.86652270
  Solvation  Ediel_sol  =         0.00000000
  ---------------------------------------------------
  free energy    TOTEN  =        -5.73986991 eV

  energy without entropy =       -5.74222315  energy(sigma->0) =       -5.74065432


--------------------------------------------------------------------------------------------------------




--------------------------------------- Iteration      1(   8)  ---------------------------------------


    POTLOK:  cpu time      0.0313: real time      0.0476
    SETDIJ:  cpu time      0.0013: real time      0.0013
     EDDAV:  cpu time      1.2153: real time      1.2180
       DOS:  cpu time      0.0010: real time      0.0010
    CHARGE:  cpu time      0.1435: real time      0.1455
    MIXING:  cpu time      0.0049: real time      0.0049
    --------------------------------------------
      LOOP:  cpu time      1.3972: real time      1.4020

 eigenvalue-minimisations  :  1088
 total energy-change (2. order) :-0.6497278E-03  (-0.2387650E-02)
 number of electron       8.0000001 magnetization 
 augmentation part       -0.5618834 magnetization 

 Broyden mixing:
  rms(total) = 0.10864E-01    rms(broyden)= 0.10864E-01
  rms(prec ) = 0.21064E-01
  weight for this iteration     100.00

 eigenvalues of (default mixing * dielectric matrix)
  average eigenvalue GAMMA=   1.7999
  2.5709  1.4144  1.4144

 Free energy of the ion-electron system (eV)
  ---------------------------------------------------
  alpha Z        PSCENC =         0.59225545
  Ewald energy   TEWEN  =      -128.89401867
  -Hartree energ DENC   =       -53.19666154
  -exchange      EXHF   =         0.00000000
  -V(xc)+E(xc)   XCENC  =       -20.82511928
  PAW double counting   =        68.18216984      -33.36964018
  entropy T*S    EENTRO =         0.00245867
  eigenvalues    EBANDS =       -45.09848661
  atomic energy  EATOM  =       206.86652270
  Solvation  Ediel_sol  =         0.00000000
  ---------------------------------------------------
  free energy    TOTEN  =        -5.74051963 eV

  energy without entropy =       -5.74297830  energy(sigma->0) =       -5.74133919


--------------------------------------------------------------------------------------------------------




--------------------------------------- Iteration      1(   9)  ---------------------------------------


    POTLOK:  cpu time      0.0311: real time      0.0311
    SETDIJ:  cpu time      0.0014: real time      0.0014
     EDDAV:  cpu time      1.5175: real time      1.5198
       DOS:  cpu time      0.0010: real time      0.0010
    CHARGE:  cpu time      0.1416: real time      0.1438
    MIXING:  cpu time      0.0050: real time      0.0050
    --------------------------------------------
      LOOP:  cpu time      1.6975: real time      1.7021

 eigenvalue-minimisations  :  1488
 total energy-change (2. order) : 0.9761579E-04  (-0.1512322E-03)
 number of electron       8.0000001 magnetization 
 augmentation part       -0.5622603 magnetization 

 Broyden mixing:
  rms(total) = 0.27202E-02    rms(broyden)= 0.27202E-02
  rms(prec ) = 0.50095E-02
  weight for this iteration     100.00

 eigenvalues of (default mixing * dielectric matrix)
  average eigenvalue GAMMA=   1.6754
  2.4358  1.7083  1.7083  0.8492

 Free energy of the ion-electron system (eV)
  ---------------------------------------------------
  alpha Z        PSCENC =         0.59225545
  Ewald energy   TEWEN  =      -128.89401867
  -Hartree energ DENC   =       -53.23566598
  -exchange      EXHF   =         0.00000000
  -V(xc)+E(xc)   XCENC  =       -20.81742628
  PAW double counting   =        68.19965816      -33.38659535
  entropy T*S    EENTRO =         0.00240022
  eigenvalues    EBANDS =       -45.06755227
  atomic energy  EATOM  =       206.86652270
  Solvation  Ediel_sol  =         0.00000000
  ---------------------------------------------------
  free energy    TOTEN  =        -5.74042202 eV

  energy without entropy =       -5.74282224  energy(sigma->0) =       -5.74122209


--------------------------------------------------------------------------------------------------------




--------------------------------------- Iteration      1(  10)  ---------------------------------------


    POTLOK:  cpu time      0.0314: real time      0.0314
    SETDIJ:  cpu time      0.0014: real time      0.0014
     EDDAV:  cpu time      1.4325: real time      1.4348
       DOS:  cpu time      0.0010: real time      0.0010
    CHARGE:  cpu time      0.1424: real time      0.1445
    MIXING:  cpu time      0.0049: real time      0.0049
    --------------------------------------------
      LOOP:  cpu time      1.6135: real time      1.6180

 eigenvalue-minimisations  :  1376
 total energy-change (2. order) :-0.2432303E-04  (-0.1603571E-04)
 number of electron       8.0000001 magnetization 
 augmentation part       -0.5622024 magnetization 

 Broyden mixing:
  rms(total) = 0.21597E-02    rms(broyden)= 0.21597E-02
  rms(prec ) = 0.42622E-02
  weight for this iteration     100.00

 eigenvalues of (default mixing * dielectric matrix)
  average eigenvalue GAMMA=   1.8046
  2.9174  2.5243  1.3755  1.3755  0.8301

 Free energy of the ion-electron system (eV)
  ---------------------------------------------------
  alpha Z        PSCENC =         0.59225545
  Ewald energy   TEWEN  =      -128.89401867
  -Hartree energ DENC   =       -53.27017392
  -exchange      EXHF   =         0.00000000
  -V(xc)+E(xc)   XCENC  =       -20.81525993
  PAW double counting   =        68.26067148      -33.44941986
  entropy T*S    EENTRO =         0.00240843
  eigenvalues    EBANDS =       -45.03343203
  atomic energy  EATOM  =       206.86652270
  Solvation  Ediel_sol  =         0.00000000
  ---------------------------------------------------
  free energy    TOTEN  =        -5.74044634 eV

  energy without entropy =       -5.74285477  energy(sigma->0) =       -5.74124915


--------------------------------------------------------------------------------------------------------




--------------------------------------- Iteration      1(  11)  ---------------------------------------


    POTLOK:  cpu time      0.0309: real time      0.0309
    SETDIJ:  cpu time      0.0014: real time      0.0014
     EDDAV:  cpu time      1.6278: real time      1.6302
       DOS:  cpu time      0.0010: real time      0.0010
    CHARGE:  cpu time      0.1421: real time      0.1440
    MIXING:  cpu time      0.0050: real time      0.0050
    --------------------------------------------
      LOOP:  cpu time      1.8081: real time      1.8124

 eigenvalue-minimisations  :  1592
 total energy-change (2. order) :-0.8029336E-06  (-0.1264628E-04)
 number of electron       8.0000001 magnetization 
 augmentation part       -0.5623346 magnetization 

 Broyden mixing:
  rms(total) = 0.10351E-02    rms(broyden)= 0.10351E-02
  rms(prec ) = 0.20692E-02
  weight for this iteration     100.00

 eigenvalues of (default mixing * dielectric matrix)
  average eigenvalue GAMMA=   1.6529
  2.8587  2.2913  1.5244  1.5244  0.8595  0.8595

 Free energy of the ion-electron system (eV)
  ---------------------------------------------------
  alpha Z        PSCENC =         0.59225545
  Ewald energy   TEWEN  =      -128.89401867
  -Hartree energ DENC   =       -53.24496126
  -exchange      EXHF   =         0.00000000
  -V(xc)+E(xc)   XCENC  =       -20.81731346
  PAW double counting   =        68.26153338      -33.45038222
  entropy T*S    EENTRO =         0.00242913
  eigenvalues    EBANDS =       -45.05651220
  atomic energy  EATOM  =       206.86652270
  Solvation  Ediel_sol  =         0.00000000
  ---------------------------------------------------
  free energy    TOTEN  =        -5.74044714 eV

  energy without entropy =       -5.74287628  energy(sigma->0) =       -5.74125685


--------------------------------------------------------------------------------------------------------




--------------------------------------- Iteration      1(  12)  ---------------------------------------


    POTLOK:  cpu time      0.0313: real time      0.0313
    SETDIJ:  cpu time      0.0014: real time      0.0014
     EDDAV:  cpu time      1.3177: real time      1.3245
       DOS:  cpu time      0.0010: real time      0.0010
    CHARGE:  cpu time      0.1416: real time      0.1434
    MIXING:  cpu time      0.0051: real time      0.0051
    --------------------------------------------
      LOOP:  cpu time      1.4981: real time      1.5067

 eigenvalue-minimisations  :  1232
 total energy-change (2. order) : 0.2919735E-05  (-0.1065287E-05)
 number of electron       8.0000001 magnetization 
 augmentation part       -0.5623292 magnetization 

 Broyden mixing:
  rms(total) = 0.26829E-03    rms(broyden)= 0.26829E-03
  rms(prec ) = 0.62531E-03
  weight for this iteration     100.00

 eigenvalues of (default mixing * dielectric matrix)
  average eigenvalue GAMMA=   1.7595
  3.0474  2.5547  2.0556  1.5217  1.2567  0.9402  0.9402

 Free energy of the ion-electron system (eV)
  ---------------------------------------------------
  alpha Z        PSCENC =         0.59225545
  Ewald energy   TEWEN  =      -128.89401867
  -Hartree energ DENC   =       -53.25058792
  -exchange      EXHF   =         0.00000000
  -V(xc)+E(xc)   XCENC  =       -20.81670585
  PAW double counting   =        68.25763890      -33.44638809
  entropy T*S    EENTRO =         0.00241960
  eigenvalues    EBANDS =       -45.05158036
  atomic energy  EATOM  =       206.86652270
  Solvation  Ediel_sol  =         0.00000000
  ---------------------------------------------------
  free energy    TOTEN  =        -5.74044422 eV

  energy without entropy =       -5.74286383  energy(sigma->0) =       -5.74125076


--------------------------------------------------------------------------------------------------------




--------------------------------------- Iteration      1(  13)  ---------------------------------------


    POTLOK:  cpu time      0.0310: real time      0.0311
    SETDIJ:  cpu time      0.0014: real time      0.0014
     EDDAV:  cpu time      1.2495: real time      1.2517
       DOS:  cpu time      0.0010: real time      0.0010
    --------------------------------------------
      LOOP:  cpu time      1.2830: real time      1.3006

 eigenvalue-minimisations  :  1136
 total energy-change (2. order) : 0.3020608E-07  (-0.4309191E-06)
 number of electron       8.0000001 magnetization 
 augmentation part       -0.5623292 magnetization 

 Free energy of the ion-electron system (eV)
  ---------------------------------------------------
  alpha Z        PSCENC =         0.59225545
  Ewald energy   TEWEN  =      -128.89401867
  -Hartree energ DENC   =       -53.25883806
  -exchange      EXHF   =         0.00000000
  -V(xc)+E(xc)   XCENC  =       -20.81622976
  PAW double counting   =        68.26323110      -33.45220129
  entropy T*S    EENTRO =         0.00241748
  eigenvalues    EBANDS =       -45.04358314
  atomic energy  EATOM  =       206.86652270
  Solvation  Ediel_sol  =         0.00000000
  ---------------------------------------------------
  free energy    TOTEN  =        -5.74044419 eV

  energy without entropy =       -5.74286167  energy(sigma->0) =       -5.74125002


--------------------------------------------------------------------------------------------------------




 average (electrostatic) potential at core
  the test charge radii are     0.9892
  (the norm of the test charge is              1.0000)
       1 -93.5039       2 -93.5039
 
 
 
 E-fermi :  -2.4818     XC(G=0):  -5.0960     alpha+bet : -3.0232

 Fermi energy:        -2.4817829670

 k-point     1 :       0.0000    0.0000    0.0000
  band No.  band energies     occupation 
      1     -10.1837      2.00000
      2      -6.5309      2.00000
      3      -2.8904      2.00000
      4      -2.1432     -0.00002
      5      -2.1432     -0.00002
      6      -0.7531     -0.00000
      7      -0.7531     -0.00000
      8       2.1004      0.00000

 k-point     2 :       0.1250    0.0000    0.0000
  band No.  band energies     occupation 
      1     -10.1713      2.00000
      2      -6.5575      2.00000
      3      -2.9005      2.00000
      4      -2.2527     -0.00560
      5      -2.1293     -0.00001
      6      -0.7399     -0.00000
      7      -0.5870     -0.00000
      8       2.0278      0.00000

 k-point     3 :       0.2500    0.0000    0.0000
  band No.  band energies     occupation 
      1     -10.1406      2.00000
      2      -6.6237      2.00000
      3      -2.9137      2.00000
      4      -2.4448      0.41888
      5      -2.0950     -0.00000
      6      -0.7076     -0.00000
      7      -0.3139     -0.00000
      8       1.9914      0.00000

 k-point     4 :       0.3750    0.0000    0.0000
  band No.  band energies     occupation 
      1     -10.1088      2.00000
      2      -6.6926      2.00000
      3      -2.8947      2.00000
      4      -2.6090      2.07025
      5      -2.0593     -0.00000
      6      -0.6747     -0.00000
      7      -0.1631     -0.00000
      8       2.0219      0.00000

 k-point     5 :       0.5000    0.0000    0.0000
  band No.  band energies     occupation 
      1     -10.0954      2.00000
      2      -6.7219      2.00000
      3      -2.8597      2.00000
      4      -2.6938      2.01062
      5      -2.0441     -0.00000
      6      -0.6609     -0.00000
      7      -0.1255     -0.00000
      8       2.0224      0.00000

 k-point     6 :       0.1250    0.1250    0.0000
  band No.  band energies     occupation 
      1     -10.1586      2.00000
      2      -6.5874      2.00000
      3      -2.8387      2.00001
      4      -2.3907     -0.02659
      5      -2.1580     -0.00005
      6      -0.6480     -0.00000
      7      -0.4699     -0.00000
      8       1.7675      0.00000

 k-point     7 :      -0.1250    0.1250    0.0000
  band No.  band energies     occupation 
      1     -10.1594      2.00000
      2      -6.5768      2.00000
      3      -2.9794      2.00000
      4      -2.2036     -0.00060
      5      -2.2020     -0.00055
      6      -0.6649     -0.00000
      7      -0.5279     -0.00000
      8       2.2814      0.00000

 k-point     8 :       0.2500    0.1250    0.0000
  band No.  band energies     occupation 
      1     -10.1280      2.00000
      2      -6.6509      2.00000
      3      -2.8058      2.00005
      4      -2.5951      2.06803
      5      -2.1556     -0.00004
      6      -0.5976     -0.00000
      7      -0.2185     -0.00000
      8       1.7080      0.00000

 k-point     9 :      -0.1250    0.2500    0.0000
  band No.  band energies     occupation 
      1     -10.1292      2.00000
      2      -6.6363      2.00000
      3      -3.0376      2.00000
      4      -2.3633     -0.07039
      5      -2.1630     -0.00006
      6      -0.6333     -0.00000
      7      -0.2765     -0.00000
      8       2.3731      0.00000

 k-point    10 :       0.3750    0.1250    0.0000
  band No.  band energies     occupation 
      1     -10.0967      2.00000
      2      -6.7131      2.00000
      3      -2.8336      2.00001
      4      -2.7052      2.00700
      5      -2.1335     -0.00001
      6      -0.5823     -0.00000
      7      -0.0827     -0.00000
      8       1.8539      0.00000

 k-point    11 :      -0.1250    0.3750    0.0000
  band No.  band energies     occupation 
      1     -10.0976      2.00000
      2      -6.7031      2.00000
      3      -3.0302      2.00000
      4      -2.5204      1.60229
      5      -2.1300     -0.00001
      6      -0.6106     -0.00000
      7      -0.1102     -0.00000
      8       2.2459      0.00000

 k-point    12 :       0.5000    0.1250    0.0000
  band No.  band energies     occupation 
      1     -10.0838      2.00000
      2      -6.7356      2.00000
      3      -2.9491      2.00000
      4      -2.6460      2.04226
      5      -2.1190     -0.00000
      6      -0.5900     -0.00000
      7      -0.0580     -0.00000
      8       2.0405      0.00000

 k-point    13 :       0.2500    0.2500    0.0000
  band No.  band energies     occupation 
      1     -10.0981      2.00000
      2      -6.7043      2.00000
      3      -2.7920      2.00010
      4      -2.7284      2.00269
      5      -2.2193     -0.00130
      6      -0.5347     -0.00000
      7       0.0039     -0.00000
      8       1.6696      0.00000

 k-point    14 :      -0.2500    0.2500    0.0000
  band No.  band energies     occupation 
      1     -10.0998      2.00000
      2      -6.6839      2.00000
      3      -3.1333      2.00000
      4      -2.3532     -0.06987
      5      -2.2720     -0.01150
      6      -0.5823     -0.00000
      7      -0.0697     -0.00000
      8       2.7549      0.00000

 k-point    15 :       0.3750    0.2500    0.0000
  band No.  band energies     occupation 
      1     -10.0677      2.00000
      2      -6.7549      2.00000
      3      -2.9583      2.00000
      4      -2.6800      2.01696
      5      -2.2381     -0.00305
      6      -0.5541     -0.00000
      7       0.1525     -0.00000
      8       1.8799      0.00000

 k-point    16 :      -0.2500    0.3750    0.0000
  band No.  band energies     occupation 
      1     -10.0690      2.00000
      2      -6.7408      2.00000
      3      -3.1507      2.00000
      4      -2.4895      1.12995
      5      -2.2517     -0.00537
      6      -0.5856     -0.00000
      7       0.1109     -0.00000
      8       2.4573      0.00000

 k-point    17 :       0.5000    0.2500    0.0000
  band No.  band energies     occupation 
      1     -10.0553      2.00000
      2      -6.7711      2.00000
      3      -3.0830      2.00000
      4      -2.6098      2.07003
      5      -2.2372     -0.00294
      6      -0.5796     -0.00000
      7       0.1788     -0.00000
      8       2.1555      0.00000

 k-point    18 :       0.3750    0.3750    0.0000
  band No.  band energies     occupation 
      1     -10.0380      2.00000
      2      -6.7960      2.00000
      3      -3.0812      2.00000
      4      -2.6702      2.02282
      5      -2.2825     -0.01638
      6      -0.6032     -0.00000
      7       0.3412      0.00000
      8       2.1062      0.00000

 k-point    19 :      -0.3750    0.3750    0.0000
  band No.  band energies     occupation 
      1     -10.0390      2.00000
      2      -6.7861      2.00000
      3      -3.1972      2.00000
      4      -2.5591      1.96571
      5      -2.2894     -0.02028
      6      -0.6208     -0.00000
      7       0.3126      0.00000
      8       2.5937      0.00000

 k-point    20 :       0.5000    0.3750    0.0000
  band No.  band energies     occupation 
      1     -10.0259      2.00000
      2      -6.8100      2.00000
      3      -3.1633      2.00000
      4      -2.6458      2.04245
      5      -2.2855     -0.01800
      6      -0.6336     -0.00000
      7       0.3876      0.00000
      8       2.3788      0.00000

 k-point    21 :       0.5000    0.5000    0.0000
  band No.  band energies     occupation 
      1     -10.0134      2.00000
      2      -6.8271      2.00000
      3      -3.1832      2.00000
      4      -2.6825      2.01564
      5      -2.2874     -0.01906
      6      -0.6592     -0.00000
      7       0.4547      0.00000
      8       2.5258      0.00000

 k-point    22 :       0.1250    0.1250    0.1250
  band No.  band energies     occupation 
      1     -10.1456      2.00000
      2      -6.6196      2.00000
      3      -2.7297      2.00254
      4      -2.3795     -0.05459
      5      -2.3795     -0.05459
      6      -0.4426     -0.00000
      7      -0.4426     -0.00000
      8       1.4906      0.00000

 k-point    23 :      -0.1250    0.1250    0.1250
  band No.  band energies     occupation 
      1     -10.1472      2.00000
      2      -6.6000      2.00000
      3      -2.9804      2.00000
      4      -2.3661     -0.06936
      5      -2.1419     -0.00002
      6      -0.5337     -0.00000
      7      -0.4927     -0.00000
      8       2.1422      0.00000

 k-point    24 :       0.2500    0.1250    0.1250
  band No.  band energies     occupation 
      1     -10.1151      2.00000
      2      -6.6798      2.00000
      3      -2.6840      2.01488
      4      -2.6327      2.05449
      5      -2.3385     -0.06099
      6      -0.4265     -0.00000
      7      -0.1683     -0.00000
      8       1.4763      0.00000

 k-point    25 :      -0.1250    0.2500    0.1250
  band No.  band energies     occupation 
      1     -10.1171      2.00000
      2      -6.6582      2.00000
      3      -2.9784      2.00000
      4      -2.5559      1.94668
      5      -2.1344     -0.00001
      6      -0.5125     -0.00000
      7      -0.2256     -0.00000
      8       2.0213      0.00000

 k-point    26 :      -0.2500    0.1250    0.1250
  band No.  band energies     occupation 
      1     -10.1175      2.00000
      2      -6.6527      2.00000
      3      -3.0886      2.00000
      4      -2.3180     -0.04266
      5      -2.2686     -0.01020
      6      -0.5022     -0.00000
      7      -0.2711     -0.00000
      8       2.5392      0.00000

 k-point    27 :       0.3750    0.1250    0.1250
  band No.  band energies     occupation 
      1     -10.0844      2.00000
      2      -6.7353      2.00000
      3      -2.8675      2.00000
      4      -2.6208      2.06423
      5      -2.2891     -0.02009
      6      -0.4360     -0.00000
      7      -0.0526     -0.00000
      8       1.7647      0.00000

 k-point    28 :      -0.1250    0.3750    0.1250
  band No.  band energies     occupation 
      1     -10.0859      2.00000
      2      -6.7194      2.00000
      3      -2.9526      2.00000
      4      -2.7069      2.00655
      5      -2.1345     -0.00001
      6      -0.5035     -0.00000
      7      -0.0656     -0.00000
      8       1.9790      0.00000

 k-point    29 :      -0.3750    0.1250    0.1250
  band No.  band energies     occupation 
      1     -10.0861      2.00000
      2      -6.7165      2.00000
      3      -3.1048      2.00000
      4      -2.4191      0.13666
      5      -2.2734     -0.01210
      6      -0.4931     -0.00000
      7      -0.1014     -0.00000
      8       2.5301      0.00000

 k-point    30 :       0.5000    0.1250    0.1250
  band No.  band energies     occupation 
      1     -10.0720      2.00000
      2      -6.7515      2.00000
      3      -3.0224      2.00000
      4      -2.5444      1.86298
      5      -2.2610     -0.00773
      6      -0.4659     -0.00000
      7      -0.0432     -0.00000
      8       2.1478      0.00000

 k-point    31 :      -0.1250    0.5000    0.1250
  band No.  band energies     occupation 
      1     -10.0727      2.00000
      2      -6.7456      2.00000
      3      -2.9135      2.00000
      4      -2.7886      2.00013
      5      -2.1333     -0.00001
      6      -0.5013     -0.00000
      7      -0.0240     -0.00000
      8       1.9538      0.00000

 k-point    32 :       0.2500    0.2500    0.1250
  band No.  band energies     occupation 
      1     -10.0854      2.00000
      2      -6.7303      2.00000
      3      -2.7756      2.00026
      4      -2.6157      2.06747
      5      -2.4466      0.44408
      6      -0.3355     -0.00000
      7       0.0172     -0.00000
      8       1.4925      0.00000

 k-point    33 :      -0.2500    0.2500    0.1250
  band No.  band energies     occupation 
      1     -10.0882      2.00000
      2      -6.7000      2.00000
      3      -3.1211      2.00000
      4      -2.5029      1.34906
      5      -2.2480     -0.00463
      6      -0.4237     -0.00000
      7      -0.0894     -0.00000
      8       2.3323      0.00000

 k-point    34 :      -0.1250    0.2500    0.2500
  band No.  band energies     occupation 
      1     -10.0876      2.00000
      2      -6.7078      2.00000
      3      -2.9197      2.00000
      4      -2.7648      2.00047
      5      -2.1795     -0.00016
      6      -0.4115     -0.00000
      7      -0.0602     -0.00000
      8       1.8936      0.00000

 k-point    35 :       0.3750    0.2500    0.1250
  band No.  band energies     occupation 
      1     -10.0554      2.00000
      2      -6.7754      2.00000
      3      -2.9565      2.00000
      4      -2.5987      2.06990
      5      -2.4278      0.21808
      6      -0.3735     -0.00000
      7       0.1416     -0.00000
      8       1.8290      0.00000

 k-point    36 :      -0.2500    0.3750    0.1250
  band No.  band energies     occupation 
      1     -10.0577      2.00000
      2      -6.7528      2.00000
      3      -3.1087      2.00000
      4      -2.6567      2.03290
      5      -2.2479     -0.00462
      6      -0.4385     -0.00000
      7       0.0807     -0.00000
      8       2.1546      0.00000

 k-point    37 :      -0.3750    0.1250    0.2500
  band No.  band energies     occupation 
      1     -10.0575      2.00000
      2      -6.7541      2.00000
      3      -3.1637      2.00000
      4      -2.4788      0.94877
      5      -2.3681     -0.06825
      6      -0.4299     -0.00000
      7       0.0746     -0.00000
      8       2.5193      0.00000

 k-point    38 :      -0.1250    0.2500    0.3750
  band No.  band energies     occupation 
      1     -10.0573      2.00000
      2      -6.7582      2.00000
      3      -2.9308      2.00000
      4      -2.8528      2.00000
      5      -2.2243     -0.00165
      6      -0.4258     -0.00000
      7       0.0879     -0.00000
      8       1.9379      0.00000

 k-point    39 :       0.5000    0.2500    0.1250
  band No.  band energies     occupation 
      1     -10.0436      2.00000
      2      -6.7863      2.00000
      3      -3.0980      2.00000
      4      -2.5489      1.89846
      5      -2.3988      0.00538
      6      -0.4174     -0.00000
      7       0.1459     -0.00000
      8       2.2664      0.00000

 k-point    40 :      -0.2500    0.5000    0.1250
  band No.  band energies     occupation 
      1     -10.0446      2.00000
      2      -6.7779      2.00000
      3      -3.0389      2.00000
      4      -2.7769      2.00024
      5      -2.2436     -0.00386
      6      -0.4454     -0.00000
      7       0.1303     -0.00000
      8       2.0191      0.00000

 k-point    41 :       0.3750    0.3750    0.1250
  band No.  band energies     occupation 
      1     -10.0262      2.00000
      2      -6.8122      2.00000
      3      -3.0600      2.00000
      4      -2.6539      2.03530
      5      -2.4346      0.29162
      6      -0.4340     -0.00000
      7       0.3095      0.00000
      8       2.1287      0.00000

 k-point    42 :      -0.3750    0.3750    0.1250
  band No.  band energies     occupation 
      1     -10.0279      2.00000
      2      -6.7963      2.00000
      3      -3.1773      2.00000
      4      -2.6375      2.05006
      5      -2.3560     -0.07060
      6      -0.4704     -0.00000
      7       0.2517      0.00000
      8       2.3696      0.00000

 k-point    43 :      -0.1250    0.3750    0.3750
  band No.  band energies     occupation 
      1     -10.0278      2.00000
      2      -6.7991      2.00000
      3      -3.0545      2.00000
      4      -2.8110      2.00003
      5      -2.3039     -0.03050
      6      -0.4669     -0.00000
      7       0.2461     -0.00000
      8       2.0611      0.00000

 k-point    44 :       0.5000    0.3750    0.1250
  band No.  band energies     occupation 
      1     -10.0146      2.00000
      2      -6.8219      2.00000
      3      -3.1463      2.00000
      4      -2.6657      2.02598
      5      -2.4046      0.03523
      6      -0.4784     -0.00000
      7       0.3305      0.00000
      8       2.4247      0.00000

 k-point    45 :      -0.3750    0.5000    0.1250
  band No.  band energies     occupation 
      1     -10.0153      2.00000
      2      -6.8159      2.00000
      3      -3.1353      2.00000
      4      -2.7515      2.00092
      5      -2.3398     -0.06203
      6      -0.4937     -0.00000
      7       0.3012      0.00000
      8       2.2046      0.00000

 k-point    46 :       0.5000    0.5000    0.1250
  band No.  band energies     occupation 
      1     -10.0026      2.00000
      2      -6.8351      2.00000
      3      -3.1587      2.00000
      4      -2.7407      2.00154
      5      -2.3821     -0.04959
      6      -0.5156     -0.00000
      7       0.3716      0.00000
      8       2.3749      0.00000

 k-point    47 :       0.2500    0.2500    0.2500
  band No.  band energies     occupation 
      1     -10.0562      2.00000
      2      -6.7731      2.00000
      3      -2.7232      2.00337
      4      -2.7232      2.00337
      5      -2.5921      2.06560
      6      -0.0346     -0.00000
      7      -0.0346     -0.00000
      8       1.5376      0.00000

 k-point    48 :      -0.2500    0.2500    0.2500
  band No.  band energies     occupation 
      1     -10.0595      2.00000
      2      -6.7411      2.00000
      3      -3.0910      2.00000
      4      -2.7065      2.00664
      5      -2.2842     -0.01726
      6      -0.1464     -0.00000
      7      -0.1454     -0.00000
      8       2.1416      0.00000

 k-point    49 :       0.3750    0.2500    0.2500
  band No.  band energies     occupation 
      1     -10.0270      2.00000
      2      -6.8098      2.00000
      3      -2.9464      2.00000
      4      -2.6620      2.02870
      5      -2.5942      2.06736
      6      -0.1295     -0.00000
      7       0.1023     -0.00000
      8       1.9143      0.00000

 k-point    50 :      -0.2500    0.3750    0.2500
  band No.  band energies     occupation 
      1     -10.0298      2.00000
      2      -6.7854      2.00000
      3      -3.0465      2.00000
      4      -2.8563      2.00000
      5      -2.3344     -0.05762
      6      -0.2176     -0.00000
      7       0.0219     -0.00000
      8       2.0907      0.00000

 k-point    51 :      -0.3750    0.2500    0.2500
  band No.  band energies     occupation 
      1     -10.0295      2.00000
      2      -6.7873      2.00000
      3      -3.1558      2.00000
      4      -2.6490      2.03956
      5      -2.4287      0.22667
      6      -0.2085     -0.00000
      7       0.0340     -0.00000
      8       2.3855      0.00000

 k-point    52 :       0.5000    0.2500    0.2500
  band No.  band energies     occupation 
      1     -10.0157      2.00000
      2      -6.8167      2.00000
      3      -3.0982      2.00000
      4      -2.6295      2.05727
      5      -2.5454      1.87077
      6      -0.2050     -0.00000
      7       0.1072     -0.00000
      8       2.3447      0.00000

 k-point    53 :      -0.2500    0.5000    0.2500
  band No.  band energies     occupation 
      1     -10.0172      2.00000
      2      -6.8046      2.00000
      3      -2.9853      2.00000
      4      -2.9514      2.00000
      5      -2.3540     -0.07012
      6      -0.2520     -0.00000
      7       0.0680     -0.00000
      8       2.0699      0.00000

 k-point    54 :       0.3750    0.3750    0.2500
  band No.  band energies     occupation 
      1      -9.9986      2.00000
      2      -6.8404      2.00000
      3      -3.0006      2.00000
      4      -2.7718      2.00032
      5      -2.6066      2.07075
      6      -0.1599     -0.00000
      7       0.1620     -0.00000
      8       2.2616      0.00000

 k-point    55 :      -0.3750    0.3750    0.2500
  band No.  band energies     occupation 
      1     -10.0007      2.00000
      2      -6.8230      2.00000
      3      -3.1292      2.00000
      4      -2.8012      2.00006
      5      -2.4716      0.82887
      6      -0.2179     -0.00000
      7       0.0976     -0.00000
      8       2.3289      0.00000

 k-point    56 :      -0.2500    0.3750    0.3750
  band No.  band energies     occupation 
      1     -10.0009      2.00000
      2      -6.8216      2.00000
      3      -2.9921      2.00000
      4      -2.9847      2.00000
      5      -2.4273      0.21252
      6      -0.2237     -0.00000
      7       0.0795     -0.00000
      8       2.1661      0.00000

 k-point    57 :       0.5000    0.3750    0.2500
  band No.  band energies     occupation 
      1      -9.9874      2.00000
      2      -6.8467      2.00000
      3      -3.0973      2.00000
      4      -2.7844      2.00016
      5      -2.5687      2.01134
      6      -0.2277     -0.00000
      7       0.1633     -0.00000
      8       2.4892      0.00000

 k-point    58 :      -0.3750    0.5000    0.2500
  band No.  band energies     occupation 
      1      -9.9886      2.00000
      2      -6.8381      2.00000
      3      -3.0739      2.00000
      4      -2.9126      2.00000
      5      -2.4748      0.88250
      6      -0.2587     -0.00000
      7       0.1231     -0.00000
      8       2.2411      0.00000

 k-point    59 :       0.5000    0.5000    0.2500
  band No.  band energies     occupation 
      1      -9.9759      2.00000
      2      -6.8565      2.00000
      3      -3.0961      2.00000
      4      -2.8732      2.00000
      5      -2.5476      1.88917
      6      -0.2811     -0.00000
      7       0.1739     -0.00000
      8       2.4007      0.00000

 k-point    60 :       0.3750    0.3750    0.3750
  band No.  band energies     occupation 
      1      -9.9709      2.00000
      2      -6.8660      2.00000
      3      -2.9338      2.00000
      4      -2.9338      2.00000
      5      -2.6917      2.01144
      6      -0.0143     -0.00000
      7      -0.0143     -0.00000
      8       2.6218      0.00000

 k-point    61 :      -0.3750    0.3750    0.3750
  band No.  band energies     occupation 
      1      -9.9726      2.00000
      2      -6.8525      2.00000
      3      -3.0755      2.00000
      4      -2.9272      2.00000
      5      -2.5719      2.02327
      6      -0.0683     -0.00000
      7      -0.0640     -0.00000
      8       2.3640      0.00000

 k-point    62 :       0.5000    0.3750    0.3750
  band No.  band energies     occupation 
      1      -9.9598      2.00000
      2      -6.8719      2.00000
      3      -3.0488      2.00000
      4      -2.9015      2.00000
      5      -2.6780      2.01803
      6      -0.1099     -0.00000
      7       0.0040     -0.00000
      8       2.5398      0.00000

 k-point    63 :      -0.3750    0.5000    0.3750
  band No.  band energies     occupation 
      1      -9.9606      2.00000
      2      -6.8657      2.00000
      3      -3.0213      2.00000
      4      -3.0026      2.00000
      5      -2.6106      2.06978
      6      -0.1346     -0.00000
      7      -0.0234     -0.00000
      8       2.3464      0.00000

 k-point    64 :       0.5000    0.5000    0.3750
  band No.  band energies     occupation 
      1      -9.9485      2.00000
      2      -6.8806      2.00000
      3      -3.0282      2.00000
      4      -2.9723      2.00000
      5      -2.6920      2.01134
      6      -0.1427     -0.00000
      7      -0.0209     -0.00000
      8       2.4155      0.00000

 k-point    65 :       0.5000    0.5000    0.5000
  band No.  band energies     occupation 
      1      -9.9368      2.00000
      2      -6.8914      2.00000
      3      -2.9983      2.00000
      4      -2.9983      2.00000
      5      -2.7571      2.00069
      6      -0.1012     -0.00000
      7      -0.1012     -0.00000
      8       2.3661      0.00000


--------------------------------------------------------------------------------------------------------


 soft charge-density along one line, spin component           1
         0         1         2         3         4         5         6         7         8         9
 total charge-density along one line
 
 pseudopotential strength for first ion, spin component:           1
 20.479   0.006  -0.001  -0.001  -0.001   0.000   0.000   0.000
  0.006   0.006   0.000   0.000   0.000  -0.000  -0.000  -0.000
 -0.001   0.000   4.502  -0.002  -0.002   0.001   0.000   0.000
 -0.001   0.000  -0.002   4.502  -0.002   0.000   0.001   0.000
 -0.001   0.000  -0.002  -0.002   4.502   0.000   0.000   0.001
  0.000  -0.000   0.001   0.000   0.000   0.005   0.000   0.000
  0.000  -0.000   0.000   0.001   0.000   0.000   0.005   0.000
  0.000  -0.000   0.000   0.000   0.001   0.000   0.000   0.005
 total augmentation occupancy for first ion, spin component:           1
  1.926  -0.074  -0.092  -0.092  -0.092  -0.061  -0.061  -0.061
 -0.074   0.297  -0.240  -0.240  -0.240   0.129   0.129   0.129
 -0.092  -0.240   0.706   0.205   0.205  -0.176  -0.081  -0.081
 -0.092  -0.240   0.205   0.706   0.205  -0.081  -0.176  -0.081
 -0.092  -0.240   0.205   0.205   0.706  -0.081  -0.081  -0.176
 -0.061   0.129  -0.176  -0.081  -0.081   0.072   0.053   0.053
 -0.061   0.129  -0.081  -0.176  -0.081   0.053   0.072   0.053
 -0.061   0.129  -0.081  -0.081  -0.176   0.053   0.053   0.072


------------------------ aborting loop because EDIFF is reached ----------------------------------------


    CHARGE:  cpu time      0.1421: real time      0.1421
    FORLOC:  cpu time      0.0065: real time      0.0065
    FORNL :  cpu time      0.1079: real time      0.1079
    STRESS:  cpu time      0.6174: real time      0.6175
    FORCOR:  cpu time      0.0385: real time      0.0385
    FORHAR:  cpu time      0.0319: real time      0.0319
    MIXING:  cpu time      0.0052: real time      0.0052
    OFIELD:  cpu time      0.0000: real time      0.0000

  FORCE on cell =-STRESS in cart. coord.  units (eV):
  Direction    XX          YY          ZZ          XY          YZ          ZX
  --------------------------------------------------------------------------------------
  Alpha Z     0.59226     0.59226     0.59226
  Ewald     -42.96470   -42.96470   -42.96470    20.43249    20.43249    20.43249
  Hartree    17.75154    17.75154    17.75154     5.44420     5.44420     5.44420
  E(xc)     -22.70835   -22.70835   -22.70835    -0.23906    -0.23906    -0.23906
  Local     -71.16645   -71.16645   -71.16645   -29.28070   -29.28070   -29.28070
  n-local    83.12590    83.12400    81.58126     1.71903     3.42761     3.75685
  augment   -14.57991   -14.57991   -14.57991    -0.60276    -0.60276    -0.60276
  Kinetic    48.63789    48.90991    46.66812    -0.96855     1.72873     2.44377
  Fock        0.00000     0.00000     0.00000     0.00000     0.00000     0.00000
  -------------------------------------------------------------------------------------
  Total      -2.39326    -2.39326    -2.39326    -0.21002    -0.21002    -0.21002
  in kB     -23.94974   -23.94974   -23.94974    -2.10169    -2.10169    -2.10169
  external pressure =      -23.95 kB  Pullay stress =        0.00 kB


 VOLUME and BASIS-vectors are now :
 -----------------------------------------------------------------------------
  energy-cutoff  :      520.00
  volume of cell :      160.10
      direct lattice vectors                 reciprocal lattice vectors
     5.430000000  0.000000000  0.000000000     0.184162063  0.000000000  0.000000000
     0.000000000  5.430000000  0.000000000     0.000000000  0.184162063  0.000000000
     0.000000000  0.000000000  5.430000000     0.000000000  0.000000000  0.184162063

  length of vectors
     5.430000000  5.430000000  5.430000000     0.184162063  0.184162063  0.184162063


 FORCES acting on ions
    electron-ion (+dipol)            ewald-force                    non-local-force                 convergence-correction
 -----------------------------------------------------------------------------------------------
   0.187E+02 0.187E+02 0.187E+02   -.184E+02 -.184E+02 -.184E+02   0.136E+00 0.136E+00 0.136E+00   0.518E-03 0.518E-03 0.518E-03
   -.187E+02 -.187E+02 -.187E+02   0.184E+02 0.184E+02 0.184E+02   -.136E+00 -.136E+00 -.136E+00   -.518E-03 -.518E-03 -.518E-03
 -----------------------------------------------------------------------------------------------
   0.751E-13 -.998E-14 -.173E-12   0.000E+00 0.000E+00 0.000E+00   -.278E-16 -.278E-16 0.000E+00   0.400E-14 0.354E-14 -.902E-14
 
 
 POSITION                                       TOTAL-FORCE (eV/Angst)
 -----------------------------------------------------------------------------------
      0.00000      0.00000      0.00000         0.428044      0.428044      0.428044
      1.35750      1.35750      1.35750        -0.428044     -0.428044     -0.428044
 -----------------------------------------------------------------------------------
    total drift:                                0.000000     -0.000000     -0.000000


--------------------------------------------------------------------------------------------------------



  FREE ENERGIE OF THE ION-ELECTRON SYSTEM (eV)
  ---------------------------------------------------
  free  energy   TOTEN  =        -5.74044419 eV

  energy  without entropy=       -5.74286167  energy(sigma->0) =       -5.74125002
 


--------------------------------------------------------------------------------------------------------


    POTLOK:  cpu time      0.0337: real time      0.0542


--------------------------------------------------------------------------------------------------------


 writing wavefunctions
     LOOP+:  cpu time     21.4435: real time     32.2390
    4ORBIT:  cpu time      0.0000: real time      0.0000

 total amount of memory used by VASP MPI-rank0   129888. kBytes
=======================================================================

   base      :      30000. kBytes
   nonl-proj :      18197. kBytes
   fftplans  :      17864. kBytes
   grid      :      27571. kBytes
   one-center:          6. kBytes
   wavefun   :      36250. kBytes
 
  
  
 General timing and accounting informations for this job:
 ========================================================
  
                  Total CPU time used (sec):       22.544
                            User time (sec):       22.101
                          System time (sec):        0.443
                         Elapsed time (sec):       38.679
  
                   Maximum memory used (kb):      252888.
                   Average memory used (kb):          N/A
  
                          Minor page faults:        76505
                          Major page faults:            0
                 Voluntary context switches:         2603
