<?xml version="1.0" encoding="ISO-8859-1"?>
<modeling>
 <generator>
  <i name="program" type="string">vasp </i>
  <i name="version" type="string">6.3.2  </i>
  <i name="subversion" type="string">27Jun22 (build Dec 02 2024 22:47:12) complex                          parallel </i>
  <i name="platform" type="string">LinuxIFC </i>
  <i name="date" type="string">2024 12 05 </i>
  <i name="time" type="string">17:34:21 </i>
 </generator>
 <incar>
  <i type="string" name="SYSTEM">Silicon</i>
  <i type="string" name="PREC">Accurate</i>
  <i type="int" name="NELM">    60</i>
  <i type="int" name="IBRION">     2</i>
  <i name="EDIFF">      0.00000100</i>
  <i type="int" name="ISIF">     3</i>
  <i name="ENCUT">    520.00000000</i>
  <i type="int" name="ISMEAR">     1</i>
  <i name="SIGMA">      0.10000000</i>
 </incar>
 <primitive_cell>
  <structure name="primitive_cell" >
   <crystal>
    <varray name="basis" >
     <v>       5.43000000       0.00000000       0.00000000 </v>
     <v>       0.00000000       5.43000000       0.00000000 </v>
     <v>       0.00000000       0.00000000       5.43000000 </v>
    </varray>
    <i name="volume">    160.10300700 </i>
    <varray name="rec_basis" >
     <v>       0.18416206       0.00000000       0.00000000 </v>
     <v>       0.00000000       0.18416206       0.00000000 </v>
     <v>       0.00000000       0.00000000       0.18416206 </v>
    </varray>
   </crystal>
   <varray name="positions" >
    <v>       0.00000000       0.00000000       0.00000000 </v>
    <v>       0.25000000       0.25000000       0.25000000 </v>
   </varray>
  </structure>
  <varray name="primitive_index" >
   <v type="int" >        1 </v>
   <v type="int" >        2 </v>
  </varray>
 </primitive_cell>
 <kpoints>
  <generation param="Gamma">
   <v type="int" name="divisions">       8        8        8 </v>
   <v name="usershift">      0.00000000       0.00000000       0.00000000 </v>
   <v name="genvec1">      0.12500000       0.00000000       0.00000000 </v>
   <v name="genvec2">      0.00000000       0.12500000       0.00000000 </v>
   <v name="genvec3">      0.00000000       0.00000000       0.12500000 </v>
   <v name="shift">      0.00000000       0.00000000       0.00000000 </v>
  </generation>
  <varray name="kpointlist" >
   <v>       0.00000000       0.00000000       0.00000000 </v>
   <v>       0.12500000       0.00000000       0.00000000 </v>
   <v>       0.25000000       0.00000000       0.00000000 </v>
   <v>       0.37500000       0.00000000       0.00000000 </v>
   <v>       0.50000000       0.00000000       0.00000000 </v>
   <v>       0.12500000       0.12500000       0.00000000 </v>
   <v>      -0.12500000       0.12500000       0.00000000 </v>
   <v>       0.25000000       0.12500000       0.00000000 </v>
   <v>      -0.12500000       0.25000000       0.00000000 </v>
   <v>       0.37500000       0.12500000       0.00000000 </v>
   <v>      -0.12500000       0.37500000       0.00000000 </v>
   <v>       0.50000000       0.12500000       0.00000000 </v>
   <v>       0.25000000       0.25000000       0.00000000 </v>
   <v>      -0.25000000       0.25000000       0.00000000 </v>
   <v>       0.37500000       0.25000000       0.00000000 </v>
   <v>      -0.25000000       0.37500000       0.00000000 </v>
   <v>       0.50000000       0.25000000       0.00000000 </v>
   <v>       0.37500000       0.37500000       0.00000000 </v>
   <v>      -0.37500000       0.37500000       0.00000000 </v>
   <v>       0.50000000       0.37500000       0.00000000 </v>
   <v>       0.50000000       0.50000000       0.00000000 </v>
   <v>       0.12500000       0.12500000       0.12500000 </v>
   <v>      -0.12500000       0.12500000       0.12500000 </v>
   <v>       0.25000000       0.12500000       0.12500000 </v>
   <v>      -0.12500000       0.25000000       0.12500000 </v>
   <v>      -0.25000000       0.12500000       0.12500000 </v>
   <v>       0.37500000       0.12500000       0.12500000 </v>
   <v>      -0.12500000       0.37500000       0.12500000 </v>
   <v>      -0.37500000       0.12500000       0.12500000 </v>
   <v>       0.50000000       0.12500000       0.12500000 </v>
   <v>      -0.12500000       0.50000000       0.12500000 </v>
   <v>       0.25000000       0.25000000       0.12500000 </v>
   <v>      -0.25000000       0.25000000       0.12500000 </v>
   <v>      -0.12500000       0.25000000       0.25000000 </v>
   <v>       0.37500000       0.25000000       0.12500000 </v>
   <v>      -0.25000000       0.37500000       0.12500000 </v>
   <v>      -0.37500000       0.12500000       0.25000000 </v>
   <v>      -0.12500000       0.25000000       0.37500000 </v>
   <v>       0.50000000       0.25000000       0.12500000 </v>
   <v>      -0.25000000       0.50000000       0.12500000 </v>
   <v>       0.37500000       0.37500000       0.12500000 </v>
   <v>      -0.37500000       0.37500000       0.12500000 </v>
   <v>      -0.12500000       0.37500000       0.37500000 </v>
   <v>       0.50000000       0.37500000       0.12500000 </v>
   <v>      -0.37500000       0.50000000       0.12500000 </v>
   <v>       0.50000000       0.50000000       0.12500000 </v>
   <v>       0.25000000       0.25000000       0.25000000 </v>
   <v>      -0.25000000       0.25000000       0.25000000 </v>
   <v>       0.37500000       0.25000000       0.25000000 </v>
   <v>      -0.25000000       0.37500000       0.25000000 </v>
   <v>      -0.37500000       0.25000000       0.25000000 </v>
   <v>       0.50000000       0.25000000       0.25000000 </v>
   <v>      -0.25000000       0.50000000       0.25000000 </v>
   <v>       0.37500000       0.37500000       0.25000000 </v>
   <v>      -0.37500000       0.37500000       0.25000000 </v>
   <v>      -0.25000000       0.37500000       0.37500000 </v>
   <v>       0.50000000       0.37500000       0.25000000 </v>
   <v>      -0.37500000       0.50000000       0.25000000 </v>
   <v>       0.50000000       0.50000000       0.25000000 </v>
   <v>       0.37500000       0.37500000       0.37500000 </v>
   <v>      -0.37500000       0.37500000       0.37500000 </v>
   <v>       0.50000000       0.37500000       0.37500000 </v>
   <v>      -0.37500000       0.50000000       0.37500000 </v>
   <v>       0.50000000       0.50000000       0.37500000 </v>
   <v>       0.50000000       0.50000000       0.50000000 </v>
  </varray>
  <varray name="weights" >
   <v>       0.00195312 </v>
   <v>       0.01171875 </v>
   <v>       0.01171875 </v>
   <v>       0.01171875 </v>
   <v>       0.00585938 </v>
   <v>       0.01171875 </v>
   <v>       0.01171875 </v>
   <v>       0.02343750 </v>
   <v>       0.02343750 </v>
   <v>       0.02343750 </v>
   <v>       0.02343750 </v>
   <v>       0.02343750 </v>
   <v>       0.01171875 </v>
   <v>       0.01171875 </v>
   <v>       0.02343750 </v>
   <v>       0.02343750 </v>
   <v>       0.02343750 </v>
   <v>       0.01171875 </v>
   <v>       0.01171875 </v>
   <v>       0.02343750 </v>
   <v>       0.00585938 </v>
   <v>       0.00390625 </v>
   <v>       0.01171875 </v>
   <v>       0.01171875 </v>
   <v>       0.02343750 </v>
   <v>       0.01171875 </v>
   <v>       0.01171875 </v>
   <v>       0.02343750 </v>
   <v>       0.01171875 </v>
   <v>       0.01171875 </v>
   <v>       0.01171875 </v>
   <v>       0.01171875 </v>
   <v>       0.02343750 </v>
   <v>       0.01171875 </v>
   <v>       0.02343750 </v>
   <v>       0.02343750 </v>
   <v>       0.02343750 </v>
   <v>       0.02343750 </v>
   <v>       0.02343750 </v>
   <v>       0.02343750 </v>
   <v>       0.01171875 </v>
   <v>       0.02343750 </v>
   <v>       0.01171875 </v>
   <v>       0.02343750 </v>
   <v>       0.02343750 </v>
   <v>       0.01171875 </v>
   <v>       0.00390625 </v>
   <v>       0.01171875 </v>
   <v>       0.01171875 </v>
   <v>       0.02343750 </v>
   <v>       0.01171875 </v>
   <v>       0.01171875 </v>
   <v>       0.01171875 </v>
   <v>       0.01171875 </v>
   <v>       0.02343750 </v>
   <v>       0.01171875 </v>
   <v>       0.02343750 </v>
   <v>       0.02343750 </v>
   <v>       0.01171875 </v>
   <v>       0.00390625 </v>
   <v>       0.01171875 </v>
   <v>       0.01171875 </v>
   <v>       0.01171875 </v>
   <v>       0.01171875 </v>
   <v>       0.00195312 </v>
  </varray>
 </kpoints>
 <parameters>
  <separator name="general" >
   <i type="string" name="SYSTEM">Silicon</i>
   <i type="logical" name="LCOMPAT"> F  </i>
  </separator>
  <separator name="electronic" >
   <i type="string" name="PREC">accura</i>
   <i name="ENMAX">    520.00000000</i>
   <i name="ENAUG">    322.06900000</i>
   <i name="EDIFF">      0.00000100</i>
   <i type="int" name="IALGO">    38</i>
   <i type="int" name="IWAVPR">    10</i>
   <i type="int" name="NBANDS">     8</i>
   <i type="int" name="NBANDSLOW">    -1</i>
   <i type="int" name="NBANDSHIGH">    -1</i>
   <i name="NELECT">      8.00000000</i>
   <i type="int" name="TURBO">     0</i>
   <i type="int" name="IRESTART">     0</i>
   <i type="int" name="NREBOOT">     0</i>
   <i type="int" name="NMIN">     0</i>
   <i name="EREF">      0.00000000</i>
   <separator name="electronic smearing" >
    <i type="int" name="ISMEAR">     1</i>
    <i name="SIGMA">      0.10000000</i>
    <i name="KSPACING">      0.50000000</i>
    <i type="logical" name="KGAMMA"> T  </i>
    <i type="logical" name="KBLOWUP"> T  </i>
   </separator>
   <separator name="electronic projectors" >
    <i type="logical" name="LREAL"> F  </i>
    <v name="ROPT">      0.00000000</v>
    <i type="int" name="LMAXPAW">  -100</i>
    <i type="int" name="LMAXMIX">     2</i>
    <i type="logical" name="NLSPLINE"> F  </i>
   </separator>
   <separator name="electronic startup" >
    <i type="int" name="ISTART">     0</i>
    <i type="int" name="ICHARG">     2</i>
    <i type="int" name="INIWAV">     1</i>
   </separator>
   <separator name="electronic spin" >
    <i type="int" name="ISPIN">     1</i>
    <i type="logical" name="LNONCOLLINEAR"> F  </i>
    <v name="MAGMOM">      1.00000000      1.00000000</v>
    <i name="NUPDOWN">     -1.00000000</i>
    <i type="logical" name="LSORBIT"> F  </i>
    <v name="SAXIS">      0.00000000      0.00000000      1.00000000</v>
    <i type="logical" name="LSPIRAL"> F  </i>
    <v name="QSPIRAL">      0.00000000      0.00000000      0.00000000</v>
    <i type="logical" name="LZEROZ"> F  </i>
   </separator>
   <separator name="electronic exchange-correlation" >
    <i type="logical" name="LASPH"> F  </i>
    <i type="logical" name="LMETAGGA"> F  </i>
   </separator>
   <separator name="electronic convergence" >
    <i type="int" name="NELM">    60</i>
    <i type="int" name="NELMDL">    -5</i>
    <i type="int" name="NELMIN">     2</i>
    <i name="ENINI">    520.00000000</i>
    <separator name="electronic convergence detail" >
     <i type="logical" name="LDIAG"> T  </i>
     <i type="logical" name="LSUBROT"> F  </i>
     <i name="WEIMIN">      0.00000000</i>
     <i name="EBREAK">      0.00000003</i>
     <i name="DEPER">      0.30000000</i>
     <i type="int" name="NRMM">     4</i>
     <i name="TIME">      0.40000000</i>
    </separator>
   </separator>
   <separator name="electronic mixer" >
    <i name="AMIX">      0.40000000</i>
    <i name="BMIX">      1.00000000</i>
    <i name="AMIN">      0.10000000</i>
    <i name="AMIX_MAG">      1.60000000</i>
    <i name="BMIX_MAG">      1.00000000</i>
    <separator name="electronic mixer details" >
     <i type="int" name="IMIX">     4</i>
     <i type="logical" name="MIXFIRST"> F  </i>
     <i type="int" name="MAXMIX">   -45</i>
     <i name="WC">    100.00000000</i>
     <i type="int" name="INIMIX">     1</i>
     <i type="int" name="MIXPRE">     1</i>
     <i type="int" name="MREMOVE">     5</i>
    </separator>
   </separator>
   <separator name="electronic dipolcorrection" >
    <i type="logical" name="LDIPOL"> F  </i>
    <i type="logical" name="LMONO"> F  </i>
    <i type="int" name="IDIPOL">     0</i>
    <i name="EPSILON">      1.00000000</i>
    <v name="DIPOL">   -100.00000000   -100.00000000   -100.00000000</v>
    <i name="EFIELD">      0.00000000</i>
   </separator>
  </separator>
  <separator name="grids" >
   <i type="int" name="NGX">    40</i>
   <i type="int" name="NGY">    40</i>
   <i type="int" name="NGZ">    40</i>
   <i type="int" name="NGXF">    80</i>
   <i type="int" name="NGYF">    80</i>
   <i type="int" name="NGZF">    80</i>
   <i type="logical" name="ADDGRID"> F  </i>
  </separator>
  <separator name="ionic" >
   <i type="int" name="NSW">     0</i>
   <i type="int" name="IBRION">    -1</i>
   <i type="int" name="MDALGO">     0</i>
   <i type="int" name="ISIF">     3</i>
   <i name="PSTRESS">      0.00000000</i>
   <i name="EDIFFG">      0.00001000</i>
   <i type="int" name="NFREE">     1</i>
   <i name="POTIM">      0.50000000</i>
   <i name="SMASS">     -3.00000000</i>
   <i name="SCALEE">      1.00000000</i>
  </separator>
  <separator name="ionic md" >
   <i name="TEBEG">      0.00010000</i>
   <i name="TEEND">      0.00010000</i>
   <i type="int" name="NBLOCK">     1</i>
   <i type="int" name="KBLOCK">     1</i>
   <i type="int" name="NPACO">   256</i>
   <i name="APACO">     10.00000000</i>
  </separator>
  <separator name="symmetry" >
   <i type="int" name="ISYM">     2</i>
   <i name="SYMPREC">      0.00001000</i>
  </separator>
  <separator name="dos" >
   <i type="int" name="LORBIT">     0</i>
   <v name="RWIGS">     -1.00000000</v>
   <i type="int" name="NEDOS">   301</i>
   <i name="EMIN">     10.00000000</i>
   <i name="EMAX">    -10.00000000</i>
   <i name="EFERMI">      0.00000000</i>
  </separator>
  <separator name="writing" >
   <i type="int" name="NWRITE">     2</i>
   <i type="logical" name="LWAVE"> T  </i>
   <i type="logical" name="LDOWNSAMPLE"> F  </i>
   <i type="logical" name="LCHARG"> T  </i>
   <i type="logical" name="LPARD"> F  </i>
   <i type="logical" name="LVTOT"> F  </i>
   <i type="logical" name="LVHAR"> F  </i>
   <i type="logical" name="LELF"> F  </i>
   <i type="logical" name="LOPTICS"> F  </i>
   <v name="STM">      0.00000000      0.00000000      0.00000000      0.00000000      0.00000000      0.00000000      0.00000000</v>
  </separator>
  <separator name="performance" >
   <i type="int" name="NPAR">     1</i>
   <i type="int" name="NSIM">     4</i>
   <i type="int" name="NBLK">    -1</i>
   <i type="logical" name="LPLANE"> T  </i>
   <i type="logical" name="LSCALAPACK"> T  </i>
   <i type="logical" name="LSCAAWARE"> F  </i>
   <i type="logical" name="LSCALU"> F  </i>
   <i type="logical" name="LASYNC"> F  </i>
   <i type="logical" name="LORBITALREAL"> F  </i>
  </separator>
  <separator name="miscellaneous" >
   <i type="int" name="IDIOT">     3</i>
   <i type="int" name="PHON_NSTRUCT">    -1</i>
   <i type="logical" name="LMUSIC"> F  </i>
   <v name="POMASS">     28.08500000</v>
   <v name="DARWINR">      0.00000000</v>
   <v name="DARWINV">      1.00000000</v>
   <i type="logical" name="LCORR"> T  </i>
  </separator>
  <i type="logical" name="GGA_COMPAT"> T  </i>
  <i type="logical" name="LBERRY"> F  </i>
  <i type="int" name="ICORELEVEL">     0</i>
  <i type="logical" name="LDAU"> F  </i>
  <i type="int" name="I_CONSTRAINED_M">     0</i>
  <separator name="electronic exchange-correlation" >
   <i type="string" name="GGA">--</i>
   <i type="int" name="VOSKOWN">     0</i>
   <i type="logical" name="LHFCALC"> F  </i>
   <i type="string" name="PRECFOCK"></i>
   <i type="logical" name="LSYMGRAD"> F  </i>
   <i type="logical" name="LHFONE"> F  </i>
   <i type="logical" name="LRHFCALC"> F  </i>
   <i type="logical" name="LTHOMAS"> F  </i>
   <i type="logical" name="LMODELHF"> F  </i>
   <i type="logical" name="LFOCKACE"> F  </i>
   <i name="ENCUT4O">     -1.00000000</i>
   <i type="int" name="EXXOEP">     0</i>
   <i type="int" name="FOURORBIT">     0</i>
   <i name="AEXX">      0.00000000</i>
   <i name="HFALPHA">      0.00000000</i>
   <i name="MCALPHA">      0.00000000</i>
   <i name="ALDAX">      1.00000000</i>
   <i name="AGGAX">      1.00000000</i>
   <i name="ALDAC">      1.00000000</i>
   <i name="AGGAC">      1.00000000</i>
   <i type="int" name="NKREDX">     1</i>
   <i type="int" name="NKREDY">     1</i>
   <i type="int" name="NKREDZ">     1</i>
   <i type="logical" name="SHIFTRED"> F  </i>
   <i type="logical" name="ODDONLY"> F  </i>
   <i type="logical" name="EVENONLY"> F  </i>
   <i type="int" name="LMAXFOCK">     0</i>
   <i type="int" name="NMAXFOCKAE">     0</i>
   <i type="logical" name="LFOCKAEDFT"> F  </i>
   <i name="HFSCREEN">      0.00000000</i>
   <i name="HFSCREENC">      0.00000000</i>
   <i type="int" name="NBANDSGWLOW">     0</i>
  </separator>
  <separator name="vdW DFT" >
   <i type="logical" name="LUSE_VDW"> F  </i>
   <i name="Zab_VDW">     -0.84910000</i>
   <i name="PARAM1">      0.12340000</i>
   <i name="PARAM2">      1.00000000</i>
   <i name="PARAM3">      0.00000000</i>
  </separator>
  <separator name="model GW" >
   <i type="int" name="MODEL_GW">     0</i>
   <i name="MODEL_EPS0">     48.03090210</i>
   <i name="MODEL_ALPHA">      1.00000000</i>
  </separator>
  <separator name="linear response parameters" >
   <i type="logical" name="LEPSILON"> F  </i>
   <i type="logical" name="LRPA"> F  </i>
   <i type="logical" name="LNABLA"> F  </i>
   <i type="logical" name="LVEL"> F  </i>
   <i name="CSHIFT">      0.10000000</i>
   <i name="OMEGAMAX">     -1.00000000</i>
   <i name="DEG_THRESHOLD">      0.00200000</i>
   <i name="RTIME">     -0.10000000</i>
   <i name="WPLASMAI">      0.00000000</i>
   <v name="DFIELD">      0.00000000      0.00000000      0.00000000</v>
   <v name="WPLASMA">      0.00000000      0.00000000      0.00000000      0.00000000      0.00000000      0.00000000      0.00000000      0.00000000      0.00000000</v>
  </separator>
  <separator name="orbital magnetization" >
   <i type="logical" name="NUCIND"> F  </i>
   <v name="MAGPOS">      0.00000000      0.00000000      0.00000000</v>
   <i type="logical" name="LNICSALL"> T  </i>
   <i type="logical" name="ORBITALMAG"> F  </i>
   <i type="logical" name="LMAGBLOCH"> F  </i>
   <i type="logical" name="LCHIMAG"> F  </i>
   <i type="logical" name="LGAUGE"> T  </i>
   <i type="int" name="MAGATOM">     0</i>
   <v name="MAGDIPOL">      0.00000000      0.00000000      0.00000000</v>
   <v name="AVECCONST">      0.00000000      0.00000000      0.00000000</v>
  </separator>
  <separator name="response functions" >
   <i type="logical" name="LFINITE_TEMPERATURE"> F  </i>
   <i type="logical" name="LADDER"> F  </i>
   <i type="logical" name="LRPAFORCE"> F  </i>
   <i type="logical" name="LFXC"> F  </i>
   <i type="logical" name="LHARTREE"> T  </i>
   <i type="int" name="IBSE">     0</i>
   <v type="int" name="KPOINT">    -1     0     0     0</v>
   <i type="logical" name="LTCTC"> F  </i>
   <i type="logical" name="LTCTE"> F  </i>
   <i type="logical" name="LTETE"> F  </i>
   <i type="logical" name="LTRIPLET"> F  </i>
   <i type="logical" name="LFXCEPS"> F  </i>
   <i type="logical" name="LFXHEG"> F  </i>
   <i type="int" name="NATURALO">     2</i>
   <i type="logical" name="LHOLEGF"> F  </i>
   <i type="logical" name="L2ORDER"> F  </i>
   <i type="logical" name="LDMP1"> F  </i>
   <i type="logical" name="LMP2LT"> F  </i>
   <i type="logical" name="LSMP2LT"> F  </i>
   <i type="logical" name="LGWLF"> F  </i>
   <i name="ENCUTGW">     -2.00000000</i>
   <i name="ENCUTGWSOFT">     -2.00000000</i>
   <i name="ENCUTLF">     -1.00000000</i>
   <i type="logical" name="LESF_SPLINES"> F  </i>
   <i type="int" name="LMAXMP2">    -1</i>
   <i name="SCISSOR">      0.00000000</i>
   <i type="int" name="NOMEGA">     0</i>
   <i type="int" name="NOMEGAR">     0</i>
   <i type="int" name="NBANDSGW">    -1</i>
   <i type="int" name="NBANDSO">    -1</i>
   <i type="int" name="NBANDSV">    -1</i>
   <i type="int" name="NELMGW">     1</i>
   <i type="int" name="NELMHF">     1</i>
   <i type="int" name="DIM">     3</i>
   <i type="int" name="IESPILON">     4</i>
   <i type="int" name="ANTIRES">     0</i>
   <i name="OMEGAMAX">    -30.00000000</i>
   <i name="OMEGAMIN">    -30.00000000</i>
   <i name="OMEGATL">   -200.00000000</i>
   <i type="int" name="OMEGAGRID">     0</i>
   <i name="CSHIFT">     -0.10000000</i>
   <i type="logical" name="LSELFENERGY"> F  </i>
   <i type="logical" name="LSPECTRAL"> F  </i>
   <i type="logical" name="LSPECTRALGW"> F  </i>
   <i type="logical" name="LSINGLES"> F  </i>
   <i type="logical" name="LFERMIGW"> F  </i>
   <i type="logical" name="ODDONLYGW"> F  </i>
   <i type="logical" name="EVENONLYGW"> F  </i>
   <i type="int" name="NKREDLFX">     1</i>
   <i type="int" name="NKREDLFY">     1</i>
   <i type="int" name="NKREDLFZ">     1</i>
   <i type="int" name="MAXMEM">  2800</i>
   <i type="int" name="TELESCOPE">     0</i>
   <i type="int" name="NTAUPAR">    -1</i>
   <i type="int" name="NOMEGAPAR">    -1</i>
   <i name="DAMP_NEWTON">      0.80000001</i>
   <i name="LAMBDA">      1.00000000</i>
  </separator>
  <separator name="External order field" >
   <i name="OFIELD_KAPPA">      0.00000000</i>
   <v name="OFIELD_K">      0.00000000      0.00000000      0.00000000</v>
   <i name="OFIELD_Q6_NEAR">      0.00000000</i>
   <i name="OFIELD_Q6_FAR">      0.00000000</i>
   <i name="OFIELD_A">      0.00000000</i>
  </separator>
  <separator name="optional k-points parameters" >
   <i type="int" name="KPOINTS_OPT_MODE">     1</i>
   <i type="logical" name="LKPOINTS_OPT"> F  </i>
  </separator>
 </parameters>
 <atominfo>
  <atoms>       2 </atoms>
  <types>       1 </types>
  <array name="atoms" >
   <dimension dim="1">ion</dimension>
   <field type="string">element</field>
   <field type="int">atomtype</field>
   <set>
    <rc><c>Si</c><c>   1</c></rc>
    <rc><c>Si</c><c>   1</c></rc>
   </set>
  </array>
  <array name="atomtypes" >
   <dimension dim="1">type</dimension>
   <field type="int">atomspertype</field>
   <field type="string">element</field>
   <field>mass</field>
   <field>valence</field>
   <field type="string">pseudopotential</field>
   <set>
    <rc><c>   2</c><c>Si</c><c>     28.08500000</c><c>      4.00000000</c><c> PAW Si 02Apr1999                       </c></rc>
   </set>
  </array>
 </atominfo>
 <structure name="initialpos" >
  <crystal>
   <varray name="basis" >
    <v>       5.43000000       0.00000000       0.00000000 </v>
    <v>       0.00000000       5.43000000       0.00000000 </v>
    <v>       0.00000000       0.00000000       5.43000000 </v>
   </varray>
   <i name="volume">    160.10300700 </i>
   <varray name="rec_basis" >
    <v>       0.18416206       0.00000000       0.00000000 </v>
    <v>       0.00000000       0.18416206       0.00000000 </v>
    <v>       0.00000000       0.00000000       0.18416206 </v>
   </varray>
  </crystal>
  <varray name="positions" >
   <v>       0.00000000       0.00000000       0.00000000 </v>
   <v>       0.25000000       0.25000000       0.25000000 </v>
  </varray>
 </structure>
 <calculation>
  <scstep>
   <time name="dav">    1.17    1.17</time>
   <time name="total">    1.21    1.21</time>
   <energy>
    <i name="alphaZ">      0.59225545 </i>
    <i name="ewald">   -128.89401867 </i>
    <i name="hartreedc">    -51.24928277 </i>
    <i name="XCdc">    -20.99320321 </i>
    <i name="pawpsdc">     67.11795164 </i>
    <i name="pawaedc">    -32.28261218 </i>
    <i name="eentropy">      0.00049317 </i>
    <i name="bandstr">    -28.76169549 </i>
    <i name="atom">    206.86652270 </i>
    <i name="e_fr_energy">     12.39641064 </i>
    <i name="e_wo_entrp">     12.39591747 </i>
    <i name="e_0_energy">     12.39624625 </i>
   </energy>
  </scstep>
  <scstep>
   <time name="dav">    1.69    1.69</time>
   <time name="total">    1.69    1.70</time>
   <energy>
    <i name="e_fr_energy">     -5.18409879 </i>
    <i name="e_wo_entrp">     -5.18532466 </i>
    <i name="e_0_energy">     -5.18450741 </i>
   </energy>
  </scstep>
  <scstep>
   <time name="dav">    1.31    1.31</time>
   <time name="total">    1.31    1.31</time>
   <energy>
    <i name="e_fr_energy">     -5.97676262 </i>
    <i name="e_wo_entrp">     -5.97894114 </i>
    <i name="e_0_energy">     -5.97748879 </i>
   </energy>
  </scstep>
  <scstep>
   <time name="dav">    1.69    1.69</time>
   <time name="total">    1.69    1.69</time>
   <energy>
    <i name="e_fr_energy">     -5.98686611 </i>
    <i name="e_wo_entrp">     -5.98899202 </i>
    <i name="e_0_energy">     -5.98757475 </i>
   </energy>
  </scstep>
  <scstep>
   <time name="dav">    1.52    1.53</time>
   <time name="total">    1.67    1.69</time>
   <energy>
    <i name="e_fr_energy">     -5.98689859 </i>
    <i name="e_wo_entrp">     -5.98902345 </i>
    <i name="e_0_energy">     -5.98760688 </i>
   </energy>
  </scstep>
  <scstep>
   <time name="dav">    1.31    1.31</time>
   <time name="total">    1.49    1.50</time>
   <energy>
    <i name="e_fr_energy">     -5.79803641 </i>
    <i name="e_wo_entrp">     -5.80049882 </i>
    <i name="e_0_energy">     -5.79885721 </i>
   </energy>
  </scstep>
  <scstep>
   <time name="dav">    1.40    1.41</time>
   <time name="total">    1.58    1.61</time>
   <energy>
    <i name="e_fr_energy">     -5.73986991 </i>
    <i name="e_wo_entrp">     -5.74222315 </i>
    <i name="e_0_energy">     -5.74065432 </i>
   </energy>
  </scstep>
  <scstep>
   <time name="dav">    1.22    1.22</time>
   <time name="total">    1.40    1.40</time>
   <energy>
    <i name="e_fr_energy">     -5.74051963 </i>
    <i name="e_wo_entrp">     -5.74297830 </i>
    <i name="e_0_energy">     -5.74133919 </i>
   </energy>
  </scstep>
  <scstep>
   <time name="dav">    1.52    1.52</time>
   <time name="total">    1.70    1.70</time>
   <energy>
    <i name="e_fr_energy">     -5.74042202 </i>
    <i name="e_wo_entrp">     -5.74282224 </i>
    <i name="e_0_energy">     -5.74122209 </i>
   </energy>
  </scstep>
  <scstep>
   <time name="dav">    1.43    1.43</time>
   <time name="total">    1.61    1.62</time>
   <energy>
    <i name="e_fr_energy">     -5.74044634 </i>
    <i name="e_wo_entrp">     -5.74285477 </i>
    <i name="e_0_energy">     -5.74124915 </i>
   </energy>
  </scstep>
  <scstep>
   <time name="dav">    1.63    1.63</time>
   <time name="total">    1.81    1.81</time>
   <energy>
    <i name="e_fr_energy">     -5.74044714 </i>
    <i name="e_wo_entrp">     -5.74287628 </i>
    <i name="e_0_energy">     -5.74125685 </i>
   </energy>
  </scstep>
  <scstep>
   <time name="dav">    1.32    1.32</time>
   <time name="total">    1.50    1.51</time>
   <energy>
    <i name="e_fr_energy">     -5.74044422 </i>
    <i name="e_wo_entrp">     -5.74286383 </i>
    <i name="e_0_energy">     -5.74125076 </i>
   </energy>
  </scstep>
  <scstep>
   <time name="dav">    1.25    1.25</time>
   <time name="total">    1.28    1.30</time>
   <energy>
    <i name="alphaZ">      0.59225545 </i>
    <i name="ewald">   -128.89401867 </i>
    <i name="hartreedc">    -53.25883806 </i>
    <i name="XCdc">    -20.81622976 </i>
    <i name="pawpsdc">     68.26323110 </i>
    <i name="pawaedc">    -33.45220129 </i>
    <i name="eentropy">      0.00241748 </i>
    <i name="bandstr">    -45.04358314 </i>
    <i name="atom">    206.86652270 </i>
    <i name="e_fr_energy">     -5.74044419 </i>
    <i name="e_wo_entrp">     -5.74286167 </i>
    <i name="e_0_energy">     -5.74125002 </i>
   </energy>
  </scstep>
  <structure>
   <crystal>
    <varray name="basis" >
     <v>       5.43000000       0.00000000       0.00000000 </v>
     <v>       0.00000000       5.43000000       0.00000000 </v>
     <v>       0.00000000       0.00000000       5.43000000 </v>
    </varray>
    <i name="volume">    160.10300700 </i>
    <varray name="rec_basis" >
     <v>       0.18416206       0.00000000       0.00000000 </v>
     <v>       0.00000000       0.18416206       0.00000000 </v>
     <v>       0.00000000       0.00000000       0.18416206 </v>
    </varray>
   </crystal>
   <varray name="positions" >
    <v>       0.00000000       0.00000000       0.00000000 </v>
    <v>       0.25000000       0.25000000       0.25000000 </v>
   </varray>
  </structure>
  <varray name="forces" >
   <v>       0.42804442       0.42804442       0.42804442 </v>
   <v>      -0.42804442      -0.42804442      -0.42804442 </v>
  </varray>
  <varray name="stress" >
   <v>     -23.94973543      -2.10168722      -2.10168722 </v>
   <v>      -2.10168722     -23.94973543      -2.10168722 </v>
   <v>      -2.10168722      -2.10168722     -23.94973543 </v>
  </varray>
  <energy>
   <i name="e_fr_energy">     -5.74044419 </i>
   <i name="e_wo_entrp">     -5.74286167 </i>
   <i name="e_0_energy">     -5.74125002 </i>
  </energy>
  <time name="totalsc">   21.44   32.24</time>
  <eigenvalues>
   <array>
    <dimension dim="1">band</dimension>
    <dimension dim="2">kpoint</dimension>
    <dimension dim="3">spin</dimension>
    <field>eigene</field>
    <field>occ</field>
    <set>
     <set comment="spin 1">
      <set comment="kpoint 1">
       <r>  -10.1837    1.0000 </r>
       <r>   -6.5309    1.0000 </r>
       <r>   -2.8904    1.0000 </r>
       <r>   -2.1432   -0.0000 </r>
       <r>   -2.1432   -0.0000 </r>
       <r>   -0.7531   -0.0000 </r>
       <r>   -0.7531   -0.0000 </r>
       <r>    2.1004    0.0000 </r>
      </set>
      <set comment="kpoint 2">
       <r>  -10.1713    1.0000 </r>
       <r>   -6.5575    1.0000 </r>
       <r>   -2.9005    1.0000 </r>
       <r>   -2.2527   -0.0028 </r>
       <r>   -2.1293   -0.0000 </r>
       <r>   -0.7399   -0.0000 </r>
       <r>   -0.5870   -0.0000 </r>
       <r>    2.0278    0.0000 </r>
      </set>
      <set comment="kpoint 3">
       <r>  -10.1406    1.0000 </r>
       <r>   -6.6237    1.0000 </r>
       <r>   -2.9137    1.0000 </r>
       <r>   -2.4448    0.2094 </r>
       <r>   -2.0950   -0.0000 </r>
       <r>   -0.7076   -0.0000 </r>
       <r>   -0.3139   -0.0000 </r>
       <r>    1.9914    0.0000 </r>
      </set>
      <set comment="kpoint 4">
       <r>  -10.1088    1.0000 </r>
       <r>   -6.6926    1.0000 </r>
       <r>   -2.8947    1.0000 </r>
       <r>   -2.6090    1.0351 </r>
       <r>   -2.0593   -0.0000 </r>
       <r>   -0.6747   -0.0000 </r>
       <r>   -0.1631   -0.0000 </r>
       <r>    2.0219    0.0000 </r>
      </set>
      <set comment="kpoint 5">
       <r>  -10.0954    1.0000 </r>
       <r>   -6.7219    1.0000 </r>
       <r>   -2.8597    1.0000 </r>
       <r>   -2.6938    1.0053 </r>
       <r>   -2.0441   -0.0000 </r>
       <r>   -0.6609   -0.0000 </r>
       <r>   -0.1255   -0.0000 </r>
       <r>    2.0224    0.0000 </r>
      </set>
      <set comment="kpoint 6">
       <r>  -10.1586    1.0000 </r>
       <r>   -6.5874    1.0000 </r>
       <r>   -2.8387    1.0000 </r>
       <r>   -2.3907   -0.0133 </r>
       <r>   -2.1580   -0.0000 </r>
       <r>   -0.6480   -0.0000 </r>
       <r>   -0.4699   -0.0000 </r>
       <r>    1.7675    0.0000 </r>
      </set>
      <set comment="kpoint 7">
       <r>  -10.1594    1.0000 </r>
       <r>   -6.5768    1.0000 </r>
       <r>   -2.9794    1.0000 </r>
       <r>   -2.2036   -0.0003 </r>
       <r>   -2.2020   -0.0003 </r>
       <r>   -0.6649   -0.0000 </r>
       <r>   -0.5279   -0.0000 </r>
       <r>    2.2814    0.0000 </r>
      </set>
      <set comment="kpoint 8">
       <r>  -10.1280    1.0000 </r>
       <r>   -6.6509    1.0000 </r>
       <r>   -2.8058    1.0000 </r>
       <r>   -2.5951    1.0340 </r>
       <r>   -2.1556   -0.0000 </r>
       <r>   -0.5976   -0.0000 </r>
       <r>   -0.2185   -0.0000 </r>
       <r>    1.7080    0.0000 </r>
      </set>
      <set comment="kpoint 9">
       <r>  -10.1292    1.0000 </r>
       <r>   -6.6363    1.0000 </r>
       <r>   -3.0376    1.0000 </r>
       <r>   -2.3633   -0.0352 </r>
       <r>   -2.1630   -0.0000 </r>
       <r>   -0.6333   -0.0000 </r>
       <r>   -0.2765   -0.0000 </r>
       <r>    2.3731    0.0000 </r>
      </set>
      <set comment="kpoint 10">
       <r>  -10.0967    1.0000 </r>
       <r>   -6.7131    1.0000 </r>
       <r>   -2.8336    1.0000 </r>
       <r>   -2.7052    1.0035 </r>
       <r>   -2.1335   -0.0000 </r>
       <r>   -0.5823   -0.0000 </r>
       <r>   -0.0827   -0.0000 </r>
       <r>    1.8539    0.0000 </r>
      </set>
      <set comment="kpoint 11">
       <r>  -10.0976    1.0000 </r>
       <r>   -6.7031    1.0000 </r>
       <r>   -3.0302    1.0000 </r>
       <r>   -2.5204    0.8011 </r>
       <r>   -2.1300   -0.0000 </r>
       <r>   -0.6106   -0.0000 </r>
       <r>   -0.1102   -0.0000 </r>
       <r>    2.2459    0.0000 </r>
      </set>
      <set comment="kpoint 12">
       <r>  -10.0838    1.0000 </r>
       <r>   -6.7356    1.0000 </r>
       <r>   -2.9491    1.0000 </r>
       <r>   -2.6460    1.0211 </r>
       <r>   -2.1190   -0.0000 </r>
       <r>   -0.5900   -0.0000 </r>
       <r>   -0.0580   -0.0000 </r>
       <r>    2.0405    0.0000 </r>
      </set>
      <set comment="kpoint 13">
       <r>  -10.0981    1.0000 </r>
       <r>   -6.7043    1.0000 </r>
       <r>   -2.7920    1.0001 </r>
       <r>   -2.7284    1.0013 </r>
       <r>   -2.2193   -0.0007 </r>
       <r>   -0.5347   -0.0000 </r>
       <r>    0.0039   -0.0000 </r>
       <r>    1.6696    0.0000 </r>
      </set>
      <set comment="kpoint 14">
       <r>  -10.0998    1.0000 </r>
       <r>   -6.6839    1.0000 </r>
       <r>   -3.1333    1.0000 </r>
       <r>   -2.3532   -0.0349 </r>
       <r>   -2.2720   -0.0058 </r>
       <r>   -0.5823   -0.0000 </r>
       <r>   -0.0697   -0.0000 </r>
       <r>    2.7549    0.0000 </r>
      </set>
      <set comment="kpoint 15">
       <r>  -10.0677    1.0000 </r>
       <r>   -6.7549    1.0000 </r>
       <r>   -2.9583    1.0000 </r>
       <r>   -2.6800    1.0085 </r>
       <r>   -2.2381   -0.0015 </r>
       <r>   -0.5541   -0.0000 </r>
       <r>    0.1525   -0.0000 </r>
       <r>    1.8799    0.0000 </r>
      </set>
      <set comment="kpoint 16">
       <r>  -10.0690    1.0000 </r>
       <r>   -6.7408    1.0000 </r>
       <r>   -3.1507    1.0000 </r>
       <r>   -2.4895    0.5650 </r>
       <r>   -2.2517   -0.0027 </r>
       <r>   -0.5856   -0.0000 </r>
       <r>    0.1109   -0.0000 </r>
       <r>    2.4573    0.0000 </r>
      </set>
      <set comment="kpoint 17">
       <r>  -10.0553    1.0000 </r>
       <r>   -6.7711    1.0000 </r>
       <r>   -3.0830    1.0000 </r>
       <r>   -2.6098    1.0350 </r>
       <r>   -2.2372   -0.0015 </r>
       <r>   -0.5796   -0.0000 </r>
       <r>    0.1788   -0.0000 </r>
       <r>    2.1555    0.0000 </r>
      </set>
      <set comment="kpoint 18">
       <r>  -10.0380    1.0000 </r>
       <r>   -6.7960    1.0000 </r>
       <r>   -3.0812    1.0000 </r>
       <r>   -2.6702    1.0114 </r>
       <r>   -2.2825   -0.0082 </r>
       <r>   -0.6032   -0.0000 </r>
       <r>    0.3412    0.0000 </r>
       <r>    2.1062    0.0000 </r>
      </set>
      <set comment="kpoint 19">
       <r>  -10.0390    1.0000 </r>
       <r>   -6.7861    1.0000 </r>
       <r>   -3.1972    1.0000 </r>
       <r>   -2.5591    0.9829 </r>
       <r>   -2.2894   -0.0101 </r>
       <r>   -0.6208   -0.0000 </r>
       <r>    0.3126    0.0000 </r>
       <r>    2.5937    0.0000 </r>
      </set>
      <set comment="kpoint 20">
       <r>  -10.0259    1.0000 </r>
       <r>   -6.8100    1.0000 </r>
       <r>   -3.1633    1.0000 </r>
       <r>   -2.6458    1.0212 </r>
       <r>   -2.2855   -0.0090 </r>
       <r>   -0.6336   -0.0000 </r>
       <r>    0.3876    0.0000 </r>
       <r>    2.3788    0.0000 </r>
      </set>
      <set comment="kpoint 21">
       <r>  -10.0134    1.0000 </r>
       <r>   -6.8271    1.0000 </r>
       <r>   -3.1832    1.0000 </r>
       <r>   -2.6825    1.0078 </r>
       <r>   -2.2874   -0.0095 </r>
       <r>   -0.6592   -0.0000 </r>
       <r>    0.4547    0.0000 </r>
       <r>    2.5258    0.0000 </r>
      </set>
      <set comment="kpoint 22">
       <r>  -10.1456    1.0000 </r>
       <r>   -6.6196    1.0000 </r>
       <r>   -2.7297    1.0013 </r>
       <r>   -2.3795   -0.0273 </r>
       <r>   -2.3795   -0.0273 </r>
       <r>   -0.4426   -0.0000 </r>
       <r>   -0.4426   -0.0000 </r>
       <r>    1.4906    0.0000 </r>
      </set>
      <set comment="kpoint 23">
       <r>  -10.1472    1.0000 </r>
       <r>   -6.6000    1.0000 </r>
       <r>   -2.9804    1.0000 </r>
       <r>   -2.3661   -0.0347 </r>
       <r>   -2.1419   -0.0000 </r>
       <r>   -0.5337   -0.0000 </r>
       <r>   -0.4927   -0.0000 </r>
       <r>    2.1422    0.0000 </r>
      </set>
      <set comment="kpoint 24">
       <r>  -10.1151    1.0000 </r>
       <r>   -6.6798    1.0000 </r>
       <r>   -2.6840    1.0074 </r>
       <r>   -2.6327    1.0272 </r>
       <r>   -2.3385   -0.0305 </r>
       <r>   -0.4265   -0.0000 </r>
       <r>   -0.1683   -0.0000 </r>
       <r>    1.4763    0.0000 </r>
      </set>
      <set comment="kpoint 25">
       <r>  -10.1171    1.0000 </r>
       <r>   -6.6582    1.0000 </r>
       <r>   -2.9784    1.0000 </r>
       <r>   -2.5559    0.9733 </r>
       <r>   -2.1344   -0.0000 </r>
       <r>   -0.5125   -0.0000 </r>
       <r>   -0.2256   -0.0000 </r>
       <r>    2.0213    0.0000 </r>
      </set>
      <set comment="kpoint 26">
       <r>  -10.1175    1.0000 </r>
       <r>   -6.6527    1.0000 </r>
       <r>   -3.0886    1.0000 </r>
       <r>   -2.3180   -0.0213 </r>
       <r>   -2.2686   -0.0051 </r>
       <r>   -0.5022   -0.0000 </r>
       <r>   -0.2711   -0.0000 </r>
       <r>    2.5392    0.0000 </r>
      </set>
      <set comment="kpoint 27">
       <r>  -10.0844    1.0000 </r>
       <r>   -6.7353    1.0000 </r>
       <r>   -2.8675    1.0000 </r>
       <r>   -2.6208    1.0321 </r>
       <r>   -2.2891   -0.0100 </r>
       <r>   -0.4360   -0.0000 </r>
       <r>   -0.0526   -0.0000 </r>
       <r>    1.7647    0.0000 </r>
      </set>
      <set comment="kpoint 28">
       <r>  -10.0859    1.0000 </r>
       <r>   -6.7194    1.0000 </r>
       <r>   -2.9526    1.0000 </r>
       <r>   -2.7069    1.0033 </r>
       <r>   -2.1345   -0.0000 </r>
       <r>   -0.5035   -0.0000 </r>
       <r>   -0.0656   -0.0000 </r>
       <r>    1.9790    0.0000 </r>
      </set>
      <set comment="kpoint 29">
       <r>  -10.0861    1.0000 </r>
       <r>   -6.7165    1.0000 </r>
       <r>   -3.1048    1.0000 </r>
       <r>   -2.4191    0.0683 </r>
       <r>   -2.2734   -0.0060 </r>
       <r>   -0.4931   -0.0000 </r>
       <r>   -0.1014   -0.0000 </r>
       <r>    2.5301    0.0000 </r>
      </set>
      <set comment="kpoint 30">
       <r>  -10.0720    1.0000 </r>
       <r>   -6.7515    1.0000 </r>
       <r>   -3.0224    1.0000 </r>
       <r>   -2.5444    0.9315 </r>
       <r>   -2.2610   -0.0039 </r>
       <r>   -0.4659   -0.0000 </r>
       <r>   -0.0432   -0.0000 </r>
       <r>    2.1478    0.0000 </r>
      </set>
      <set comment="kpoint 31">
       <r>  -10.0727    1.0000 </r>
       <r>   -6.7456    1.0000 </r>
       <r>   -2.9135    1.0000 </r>
       <r>   -2.7886    1.0001 </r>
       <r>   -2.1333   -0.0000 </r>
       <r>   -0.5013   -0.0000 </r>
       <r>   -0.0240   -0.0000 </r>
       <r>    1.9538    0.0000 </r>
      </set>
      <set comment="kpoint 32">
       <r>  -10.0854    1.0000 </r>
       <r>   -6.7303    1.0000 </r>
       <r>   -2.7756    1.0001 </r>
       <r>   -2.6157    1.0337 </r>
       <r>   -2.4466    0.2220 </r>
       <r>   -0.3355   -0.0000 </r>
       <r>    0.0172   -0.0000 </r>
       <r>    1.4925    0.0000 </r>
      </set>
      <set comment="kpoint 33">
       <r>  -10.0882    1.0000 </r>
       <r>   -6.7000    1.0000 </r>
       <r>   -3.1211    1.0000 </r>
       <r>   -2.5029    0.6745 </r>
       <r>   -2.2480   -0.0023 </r>
       <r>   -0.4237   -0.0000 </r>
       <r>   -0.0894   -0.0000 </r>
       <r>    2.3323    0.0000 </r>
      </set>
      <set comment="kpoint 34">
       <r>  -10.0876    1.0000 </r>
       <r>   -6.7078    1.0000 </r>
       <r>   -2.9197    1.0000 </r>
       <r>   -2.7648    1.0002 </r>
       <r>   -2.1795   -0.0001 </r>
       <r>   -0.4115   -0.0000 </r>
       <r>   -0.0602   -0.0000 </r>
       <r>    1.8936    0.0000 </r>
      </set>
      <set comment="kpoint 35">
       <r>  -10.0554    1.0000 </r>
       <r>   -6.7754    1.0000 </r>
       <r>   -2.9565    1.0000 </r>
       <r>   -2.5987    1.0349 </r>
       <r>   -2.4278    0.1090 </r>
       <r>   -0.3735   -0.0000 </r>
       <r>    0.1416   -0.0000 </r>
       <r>    1.8290    0.0000 </r>
      </set>
      <set comment="kpoint 36">
       <r>  -10.0577    1.0000 </r>
       <r>   -6.7528    1.0000 </r>
       <r>   -3.1087    1.0000 </r>
       <r>   -2.6567    1.0165 </r>
       <r>   -2.2479   -0.0023 </r>
       <r>   -0.4385   -0.0000 </r>
       <r>    0.0807   -0.0000 </r>
       <r>    2.1546    0.0000 </r>
      </set>
      <set comment="kpoint 37">
       <r>  -10.0575    1.0000 </r>
       <r>   -6.7541    1.0000 </r>
       <r>   -3.1637    1.0000 </r>
       <r>   -2.4788    0.4744 </r>
       <r>   -2.3681   -0.0341 </r>
       <r>   -0.4299   -0.0000 </r>
       <r>    0.0746   -0.0000 </r>
       <r>    2.5193    0.0000 </r>
      </set>
      <set comment="kpoint 38">
       <r>  -10.0573    1.0000 </r>
       <r>   -6.7582    1.0000 </r>
       <r>   -2.9308    1.0000 </r>
       <r>   -2.8528    1.0000 </r>
       <r>   -2.2243   -0.0008 </r>
       <r>   -0.4258   -0.0000 </r>
       <r>    0.0879   -0.0000 </r>
       <r>    1.9379    0.0000 </r>
      </set>
      <set comment="kpoint 39">
       <r>  -10.0436    1.0000 </r>
       <r>   -6.7863    1.0000 </r>
       <r>   -3.0980    1.0000 </r>
       <r>   -2.5489    0.9492 </r>
       <r>   -2.3988    0.0027 </r>
       <r>   -0.4174   -0.0000 </r>
       <r>    0.1459   -0.0000 </r>
       <r>    2.2664    0.0000 </r>
      </set>
      <set comment="kpoint 40">
       <r>  -10.0446    1.0000 </r>
       <r>   -6.7779    1.0000 </r>
       <r>   -3.0389    1.0000 </r>
       <r>   -2.7769    1.0001 </r>
       <r>   -2.2436   -0.0019 </r>
       <r>   -0.4454   -0.0000 </r>
       <r>    0.1303   -0.0000 </r>
       <r>    2.0191    0.0000 </r>
      </set>
      <set comment="kpoint 41">
       <r>  -10.0262    1.0000 </r>
       <r>   -6.8122    1.0000 </r>
       <r>   -3.0600    1.0000 </r>
       <r>   -2.6539    1.0177 </r>
       <r>   -2.4346    0.1458 </r>
       <r>   -0.4340   -0.0000 </r>
       <r>    0.3095    0.0000 </r>
       <r>    2.1287    0.0000 </r>
      </set>
      <set comment="kpoint 42">
       <r>  -10.0279    1.0000 </r>
       <r>   -6.7963    1.0000 </r>
       <r>   -3.1773    1.0000 </r>
       <r>   -2.6375    1.0250 </r>
       <r>   -2.3560   -0.0353 </r>
       <r>   -0.4704   -0.0000 </r>
       <r>    0.2517    0.0000 </r>
       <r>    2.3696    0.0000 </r>
      </set>
      <set comment="kpoint 43">
       <r>  -10.0278    1.0000 </r>
       <r>   -6.7991    1.0000 </r>
       <r>   -3.0545    1.0000 </r>
       <r>   -2.8110    1.0000 </r>
       <r>   -2.3039   -0.0152 </r>
       <r>   -0.4669   -0.0000 </r>
       <r>    0.2461   -0.0000 </r>
       <r>    2.0611    0.0000 </r>
      </set>
      <set comment="kpoint 44">
       <r>  -10.0146    1.0000 </r>
       <r>   -6.8219    1.0000 </r>
       <r>   -3.1463    1.0000 </r>
       <r>   -2.6657    1.0130 </r>
       <r>   -2.4046    0.0176 </r>
       <r>   -0.4784   -0.0000 </r>
       <r>    0.3305    0.0000 </r>
       <r>    2.4247    0.0000 </r>
      </set>
      <set comment="kpoint 45">
       <r>  -10.0153    1.0000 </r>
       <r>   -6.8159    1.0000 </r>
       <r>   -3.1353    1.0000 </r>
       <r>   -2.7515    1.0005 </r>
       <r>   -2.3398   -0.0310 </r>
       <r>   -0.4937   -0.0000 </r>
       <r>    0.3012    0.0000 </r>
       <r>    2.2046    0.0000 </r>
      </set>
      <set comment="kpoint 46">
       <r>  -10.0026    1.0000 </r>
       <r>   -6.8351    1.0000 </r>
       <r>   -3.1587    1.0000 </r>
       <r>   -2.7407    1.0008 </r>
       <r>   -2.3821   -0.0248 </r>
       <r>   -0.5156   -0.0000 </r>
       <r>    0.3716    0.0000 </r>
       <r>    2.3749    0.0000 </r>
      </set>
      <set comment="kpoint 47">
       <r>  -10.0562    1.0000 </r>
       <r>   -6.7731    1.0000 </r>
       <r>   -2.7232    1.0017 </r>
       <r>   -2.7232    1.0017 </r>
       <r>   -2.5921    1.0328 </r>
       <r>   -0.0346   -0.0000 </r>
       <r>   -0.0346   -0.0000 </r>
       <r>    1.5376    0.0000 </r>
      </set>
      <set comment="kpoint 48">
       <r>  -10.0595    1.0000 </r>
       <r>   -6.7411    1.0000 </r>
       <r>   -3.0910    1.0000 </r>
       <r>   -2.7065    1.0033 </r>
       <r>   -2.2842   -0.0086 </r>
       <r>   -0.1464   -0.0000 </r>
       <r>   -0.1454   -0.0000 </r>
       <r>    2.1416    0.0000 </r>
      </set>
      <set comment="kpoint 49">
       <r>  -10.0270    1.0000 </r>
       <r>   -6.8098    1.0000 </r>
       <r>   -2.9464    1.0000 </r>
       <r>   -2.6620    1.0143 </r>
       <r>   -2.5942    1.0337 </r>
       <r>   -0.1295   -0.0000 </r>
       <r>    0.1023   -0.0000 </r>
       <r>    1.9143    0.0000 </r>
      </set>
      <set comment="kpoint 50">
       <r>  -10.0298    1.0000 </r>
       <r>   -6.7854    1.0000 </r>
       <r>   -3.0465    1.0000 </r>
       <r>   -2.8563    1.0000 </r>
       <r>   -2.3344   -0.0288 </r>
       <r>   -0.2176   -0.0000 </r>
       <r>    0.0219   -0.0000 </r>
       <r>    2.0907    0.0000 </r>
      </set>
      <set comment="kpoint 51">
       <r>  -10.0295    1.0000 </r>
       <r>   -6.7873    1.0000 </r>
       <r>   -3.1558    1.0000 </r>
       <r>   -2.6490    1.0198 </r>
       <r>   -2.4287    0.1133 </r>
       <r>   -0.2085   -0.0000 </r>
       <r>    0.0340   -0.0000 </r>
       <r>    2.3855    0.0000 </r>
      </set>
      <set comment="kpoint 52">
       <r>  -10.0157    1.0000 </r>
       <r>   -6.8167    1.0000 </r>
       <r>   -3.0982    1.0000 </r>
       <r>   -2.6295    1.0286 </r>
       <r>   -2.5454    0.9354 </r>
       <r>   -0.2050   -0.0000 </r>
       <r>    0.1072   -0.0000 </r>
       <r>    2.3447    0.0000 </r>
      </set>
      <set comment="kpoint 53">
       <r>  -10.0172    1.0000 </r>
       <r>   -6.8046    1.0000 </r>
       <r>   -2.9853    1.0000 </r>
       <r>   -2.9514    1.0000 </r>
       <r>   -2.3540   -0.0351 </r>
       <r>   -0.2520   -0.0000 </r>
       <r>    0.0680   -0.0000 </r>
       <r>    2.0699    0.0000 </r>
      </set>
      <set comment="kpoint 54">
       <r>   -9.9986    1.0000 </r>
       <r>   -6.8404    1.0000 </r>
       <r>   -3.0006    1.0000 </r>
       <r>   -2.7718    1.0002 </r>
       <r>   -2.6066    1.0354 </r>
       <r>   -0.1599   -0.0000 </r>
       <r>    0.1620   -0.0000 </r>
       <r>    2.2616    0.0000 </r>
      </set>
      <set comment="kpoint 55">
       <r>  -10.0007    1.0000 </r>
       <r>   -6.8230    1.0000 </r>
       <r>   -3.1292    1.0000 </r>
       <r>   -2.8012    1.0000 </r>
       <r>   -2.4716    0.4144 </r>
       <r>   -0.2179   -0.0000 </r>
       <r>    0.0976   -0.0000 </r>
       <r>    2.3289    0.0000 </r>
      </set>
      <set comment="kpoint 56">
       <r>  -10.0009    1.0000 </r>
       <r>   -6.8216    1.0000 </r>
       <r>   -2.9921    1.0000 </r>
       <r>   -2.9847    1.0000 </r>
       <r>   -2.4273    0.1063 </r>
       <r>   -0.2237   -0.0000 </r>
       <r>    0.0795   -0.0000 </r>
       <r>    2.1661    0.0000 </r>
      </set>
      <set comment="kpoint 57">
       <r>   -9.9874    1.0000 </r>
       <r>   -6.8467    1.0000 </r>
       <r>   -3.0973    1.0000 </r>
       <r>   -2.7844    1.0001 </r>
       <r>   -2.5687    1.0057 </r>
       <r>   -0.2277   -0.0000 </r>
       <r>    0.1633   -0.0000 </r>
       <r>    2.4892    0.0000 </r>
      </set>
      <set comment="kpoint 58">
       <r>   -9.9886    1.0000 </r>
       <r>   -6.8381    1.0000 </r>
       <r>   -3.0739    1.0000 </r>
       <r>   -2.9126    1.0000 </r>
       <r>   -2.4748    0.4413 </r>
       <r>   -0.2587   -0.0000 </r>
       <r>    0.1231   -0.0000 </r>
       <r>    2.2411    0.0000 </r>
      </set>
      <set comment="kpoint 59">
       <r>   -9.9759    1.0000 </r>
       <r>   -6.8565    1.0000 </r>
       <r>   -3.0961    1.0000 </r>
       <r>   -2.8732    1.0000 </r>
       <r>   -2.5476    0.9446 </r>
       <r>   -0.2811   -0.0000 </r>
       <r>    0.1739   -0.0000 </r>
       <r>    2.4007    0.0000 </r>
      </set>
      <set comment="kpoint 60">
       <r>   -9.9709    1.0000 </r>
       <r>   -6.8660    1.0000 </r>
       <r>   -2.9338    1.0000 </r>
       <r>   -2.9338    1.0000 </r>
       <r>   -2.6917    1.0057 </r>
       <r>   -0.0143   -0.0000 </r>
       <r>   -0.0143   -0.0000 </r>
       <r>    2.6218    0.0000 </r>
      </set>
      <set comment="kpoint 61">
       <r>   -9.9726    1.0000 </r>
       <r>   -6.8525    1.0000 </r>
       <r>   -3.0755    1.0000 </r>
       <r>   -2.9272    1.0000 </r>
       <r>   -2.5719    1.0116 </r>
       <r>   -0.0683   -0.0000 </r>
       <r>   -0.0640   -0.0000 </r>
       <r>    2.3640    0.0000 </r>
      </set>
      <set comment="kpoint 62">
       <r>   -9.9598    1.0000 </r>
       <r>   -6.8719    1.0000 </r>
       <r>   -3.0488    1.0000 </r>
       <r>   -2.9015    1.0000 </r>
       <r>   -2.6780    1.0090 </r>
       <r>   -0.1099   -0.0000 </r>
       <r>    0.0040   -0.0000 </r>
       <r>    2.5398    0.0000 </r>
      </set>
      <set comment="kpoint 63">
       <r>   -9.9606    1.0000 </r>
       <r>   -6.8657    1.0000 </r>
       <r>   -3.0213    1.0000 </r>
       <r>   -3.0026    1.0000 </r>
       <r>   -2.6106    1.0349 </r>
       <r>   -0.1346   -0.0000 </r>
       <r>   -0.0234   -0.0000 </r>
       <r>    2.3464    0.0000 </r>
      </set>
      <set comment="kpoint 64">
       <r>   -9.9485    1.0000 </r>
       <r>   -6.8806    1.0000 </r>
       <r>   -3.0282    1.0000 </r>
       <r>   -2.9723    1.0000 </r>
       <r>   -2.6920    1.0057 </r>
       <r>   -0.1427   -0.0000 </r>
       <r>   -0.0209   -0.0000 </r>
       <r>    2.4155    0.0000 </r>
      </set>
      <set comment="kpoint 65">
       <r>   -9.9368    1.0000 </r>
       <r>   -6.8914    1.0000 </r>
       <r>   -2.9983    1.0000 </r>
       <r>   -2.9983    1.0000 </r>
       <r>   -2.7571    1.0003 </r>
       <r>   -0.1012   -0.0000 </r>
       <r>   -0.1012   -0.0000 </r>
       <r>    2.3661    0.0000 </r>
      </set>
     </set>
    </set>
   </array>
  </eigenvalues>
  <separator name="orbital magnetization" >
   <v name="MAGDIPOLOUT">      0.00000000      0.00000000      0.00000000</v>
  </separator>
  <dos>
   <i name="efermi">     -2.48178297 </i>
   <total>
    <array>
     <dimension dim="1">gridpoints</dimension>
     <dimension dim="2">spin</dimension>
     <field>energy</field>
     <field>total</field>
     <field>integrated</field>
     <set>
      <set comment="spin 1">
       <r>   -11.1837     0.0000     0.0000 </r>
       <r>   -11.1339     0.0000     0.0000 </r>
       <r>   -11.0841     0.0000     0.0000 </r>
       <r>   -11.0343     0.0000     0.0000 </r>
       <r>   -10.9845    -0.0000    -0.0000 </r>
       <r>   -10.9347    -0.0000    -0.0000 </r>
       <r>   -10.8849    -0.0000    -0.0000 </r>
       <r>   -10.8351    -0.0000    -0.0000 </r>
       <r>   -10.7853    -0.0000    -0.0000 </r>
       <r>   -10.7355    -0.0000    -0.0000 </r>
       <r>   -10.6857    -0.0000    -0.0000 </r>
       <r>   -10.6359    -0.0000    -0.0000 </r>
       <r>   -10.5861    -0.0000    -0.0000 </r>
       <r>   -10.5363    -0.0000    -0.0000 </r>
       <r>   -10.4865    -0.0001    -0.0000 </r>
       <r>   -10.4367    -0.0010    -0.0001 </r>
       <r>   -10.3869    -0.0099    -0.0005 </r>
       <r>   -10.3371    -0.0604    -0.0036 </r>
       <r>   -10.2873    -0.2053    -0.0138 </r>
       <r>   -10.2375    -0.2656    -0.0270 </r>
       <r>   -10.1877     0.6747     0.0066 </r>
       <r>   -10.1380     3.8769     0.1996 </r>
       <r>   -10.0882     8.7496     0.6353 </r>
       <r>   -10.0384    11.7566     1.2208 </r>
       <r>    -9.9886     9.9749     1.7175 </r>
       <r>    -9.9388     5.0949     1.9712 </r>
       <r>    -9.8890     1.1699     2.0294 </r>
       <r>    -9.8392    -0.2348     2.0177 </r>
       <r>    -9.7894    -0.2572     2.0049 </r>
       <r>    -9.7396    -0.0830     2.0008 </r>
       <r>    -9.6898    -0.0144     2.0001 </r>
       <r>    -9.6400    -0.0015     2.0000 </r>
       <r>    -9.5902    -0.0001     2.0000 </r>
       <r>    -9.5404    -0.0000     2.0000 </r>
       <r>    -9.4906    -0.0000     2.0000 </r>
       <r>    -9.4408    -0.0000     2.0000 </r>
       <r>    -9.3910    -0.0000     2.0000 </r>
       <r>    -9.3412    -0.0000     2.0000 </r>
       <r>    -9.2914    -0.0000     2.0000 </r>
       <r>    -9.2416     0.0000     2.0000 </r>
       <r>    -9.1918     0.0000     2.0000 </r>
       <r>    -9.1420     0.0000     2.0000 </r>
       <r>    -9.0923     0.0000     2.0000 </r>
       <r>    -9.0425     0.0000     2.0000 </r>
       <r>    -8.9927     0.0000     2.0000 </r>
       <r>    -8.9429     0.0000     2.0000 </r>
       <r>    -8.8931     0.0000     2.0000 </r>
       <r>    -8.8433     0.0000     2.0000 </r>
       <r>    -8.7935     0.0000     2.0000 </r>
       <r>    -8.7437     0.0000     2.0000 </r>
       <r>    -8.6939     0.0000     2.0000 </r>
       <r>    -8.6441     0.0000     2.0000 </r>
       <r>    -8.5943     0.0000     2.0000 </r>
       <r>    -8.5445     0.0000     2.0000 </r>
       <r>    -8.4947     0.0000     2.0000 </r>
       <r>    -8.4449     0.0000     2.0000 </r>
       <r>    -8.3951     0.0000     2.0000 </r>
       <r>    -8.3453     0.0000     2.0000 </r>
       <r>    -8.2955     0.0000     2.0000 </r>
       <r>    -8.2457     0.0000     2.0000 </r>
       <r>    -8.1959     0.0000     2.0000 </r>
       <r>    -8.1461     0.0000     2.0000 </r>
       <r>    -8.0963     0.0000     2.0000 </r>
       <r>    -8.0465     0.0000     2.0000 </r>
       <r>    -7.9968     0.0000     2.0000 </r>
       <r>    -7.9470     0.0000     2.0000 </r>
       <r>    -7.8972     0.0000     2.0000 </r>
       <r>    -7.8474     0.0000     2.0000 </r>
       <r>    -7.7976     0.0000     2.0000 </r>
       <r>    -7.7478     0.0000     2.0000 </r>
       <r>    -7.6980    -0.0000     2.0000 </r>
       <r>    -7.6482    -0.0000     2.0000 </r>
       <r>    -7.5984    -0.0000     2.0000 </r>
       <r>    -7.5486    -0.0000     2.0000 </r>
       <r>    -7.4988    -0.0000     2.0000 </r>
       <r>    -7.4490    -0.0000     2.0000 </r>
       <r>    -7.3992    -0.0000     2.0000 </r>
       <r>    -7.3494    -0.0000     2.0000 </r>
       <r>    -7.2996    -0.0000     2.0000 </r>
       <r>    -7.2498    -0.0000     2.0000 </r>
       <r>    -7.2000    -0.0000     2.0000 </r>
       <r>    -7.1502    -0.0009     2.0000 </r>
       <r>    -7.1004    -0.0095     1.9995 </r>
       <r>    -7.0506    -0.0601     1.9965 </r>
       <r>    -7.0008    -0.2061     1.9862 </r>
       <r>    -6.9511    -0.2394     1.9743 </r>
       <r>    -6.9013     0.7984     2.0141 </r>
       <r>    -6.8515     3.8850     2.2075 </r>
       <r>    -6.8017     7.8682     2.5993 </r>
       <r>    -6.7519     9.8191     3.0883 </r>
       <r>    -6.7021     8.4844     3.5107 </r>
       <r>    -6.6523     5.4636     3.7828 </r>
       <r>    -6.6025     2.8443     3.9244 </r>
       <r>    -6.5527     1.2515     3.9868 </r>
       <r>    -6.5029     0.3803     4.0057 </r>
       <r>    -6.4531    -0.0036     4.0055 </r>
       <r>    -6.4033    -0.0694     4.0021 </r>
       <r>    -6.3535    -0.0327     4.0004 </r>
       <r>    -6.3037    -0.0076     4.0001 </r>
       <r>    -6.2539    -0.0010     4.0000 </r>
       <r>    -6.2041    -0.0001     4.0000 </r>
       <r>    -6.1543    -0.0000     4.0000 </r>
       <r>    -6.1045    -0.0000     4.0000 </r>
       <r>    -6.0547    -0.0000     4.0000 </r>
       <r>    -6.0049    -0.0000     4.0000 </r>
       <r>    -5.9551    -0.0000     4.0000 </r>
       <r>    -5.9054    -0.0000     4.0000 </r>
       <r>    -5.8556     0.0000     4.0000 </r>
       <r>    -5.8058     0.0000     4.0000 </r>
       <r>    -5.7560     0.0000     4.0000 </r>
       <r>    -5.7062     0.0000     4.0000 </r>
       <r>    -5.6564     0.0000     4.0000 </r>
       <r>    -5.6066     0.0000     4.0000 </r>
       <r>    -5.5568     0.0000     4.0000 </r>
       <r>    -5.5070     0.0000     4.0000 </r>
       <r>    -5.4572     0.0000     4.0000 </r>
       <r>    -5.4074     0.0000     4.0000 </r>
       <r>    -5.3576     0.0000     4.0000 </r>
       <r>    -5.3078     0.0000     4.0000 </r>
       <r>    -5.2580     0.0000     4.0000 </r>
       <r>    -5.2082     0.0000     4.0000 </r>
       <r>    -5.1584     0.0000     4.0000 </r>
       <r>    -5.1086     0.0000     4.0000 </r>
       <r>    -5.0588     0.0000     4.0000 </r>
       <r>    -5.0090     0.0000     4.0000 </r>
       <r>    -4.9592     0.0000     4.0000 </r>
       <r>    -4.9094     0.0000     4.0000 </r>
       <r>    -4.8596     0.0000     4.0000 </r>
       <r>    -4.8099     0.0000     4.0000 </r>
       <r>    -4.7601     0.0000     4.0000 </r>
       <r>    -4.7103     0.0000     4.0000 </r>
       <r>    -4.6605     0.0000     4.0000 </r>
       <r>    -4.6107     0.0000     4.0000 </r>
       <r>    -4.5609     0.0000     4.0000 </r>
       <r>    -4.5111     0.0000     4.0000 </r>
       <r>    -4.4613     0.0000     4.0000 </r>
       <r>    -4.4115     0.0000     4.0000 </r>
       <r>    -4.3617     0.0000     4.0000 </r>
       <r>    -4.3119     0.0000     4.0000 </r>
       <r>    -4.2621     0.0000     4.0000 </r>
       <r>    -4.2123     0.0000     4.0000 </r>
       <r>    -4.1625     0.0000     4.0000 </r>
       <r>    -4.1127     0.0000     4.0000 </r>
       <r>    -4.0629     0.0000     4.0000 </r>
       <r>    -4.0131    -0.0000     4.0000 </r>
       <r>    -3.9633    -0.0000     4.0000 </r>
       <r>    -3.9135    -0.0000     4.0000 </r>
       <r>    -3.8637    -0.0000     4.0000 </r>
       <r>    -3.8139    -0.0000     4.0000 </r>
       <r>    -3.7642    -0.0000     4.0000 </r>
       <r>    -3.7144    -0.0000     4.0000 </r>
       <r>    -3.6646    -0.0000     4.0000 </r>
       <r>    -3.6148    -0.0000     4.0000 </r>
       <r>    -3.5650    -0.0000     4.0000 </r>
       <r>    -3.5152    -0.0000     4.0000 </r>
       <r>    -3.4654    -0.0007     4.0000 </r>
       <r>    -3.4156    -0.0082     3.9996 </r>
       <r>    -3.3658    -0.0523     3.9969 </r>
       <r>    -3.3160    -0.1740     3.9883 </r>
       <r>    -3.2662    -0.1661     3.9800 </r>
       <r>    -3.2164     0.7796     4.0188 </r>
       <r>    -3.1666     3.2258     4.1795 </r>
       <r>    -3.1168     5.9376     4.4751 </r>
       <r>    -3.0670     7.0762     4.8275 </r>
       <r>    -3.0172     6.7874     5.1655 </r>
       <r>    -2.9674     6.3604     5.4822 </r>
       <r>    -2.9176     5.8255     5.7723 </r>
       <r>    -2.8678     4.8507     6.0138 </r>
       <r>    -2.8180     4.1947     6.2227 </r>
       <r>    -2.7682     4.2343     6.4335 </r>
       <r>    -2.7184     4.7869     6.6719 </r>
       <r>    -2.6687     5.8971     6.9656 </r>
       <r>    -2.6189     6.6935     7.2989 </r>
       <r>    -2.5691     6.1309     7.6041 </r>
       <r>    -2.5193     4.8387     7.8451 </r>
       <r>    -2.4695     4.1153     8.0500 </r>
       <r>    -2.4197     4.2823     8.2633 </r>
       <r>    -2.3699     4.7967     8.5021 </r>
       <r>    -2.3201     5.2617     8.7641 </r>
       <r>    -2.2703     5.7062     9.0483 </r>
       <r>    -2.2205     5.7559     9.3349 </r>
       <r>    -2.1707     5.2414     9.5959 </r>
       <r>    -2.1209     4.4144     9.8157 </r>
       <r>    -2.0711     2.8472     9.9575 </r>
       <r>    -2.0213     1.0094    10.0077 </r>
       <r>    -1.9715     0.0394    10.0097 </r>
       <r>    -1.9217    -0.1204    10.0037 </r>
       <r>    -1.8719    -0.0574    10.0008 </r>
       <r>    -1.8221    -0.0143    10.0001 </r>
       <r>    -1.7723    -0.0022    10.0000 </r>
       <r>    -1.7225    -0.0002    10.0000 </r>
       <r>    -1.6727    -0.0000    10.0000 </r>
       <r>    -1.6230    -0.0000    10.0000 </r>
       <r>    -1.5732    -0.0000    10.0000 </r>
       <r>    -1.5234    -0.0000    10.0000 </r>
       <r>    -1.4736    -0.0000    10.0000 </r>
       <r>    -1.4238    -0.0000    10.0000 </r>
       <r>    -1.3740    -0.0000    10.0000 </r>
       <r>    -1.3242    -0.0000    10.0000 </r>
       <r>    -1.2744    -0.0000    10.0000 </r>
       <r>    -1.2246    -0.0000    10.0000 </r>
       <r>    -1.1748    -0.0000    10.0000 </r>
       <r>    -1.1250    -0.0000    10.0000 </r>
       <r>    -1.0752    -0.0000    10.0000 </r>
       <r>    -1.0254    -0.0002    10.0000 </r>
       <r>    -0.9756    -0.0017     9.9999 </r>
       <r>    -0.9258    -0.0102     9.9994 </r>
       <r>    -0.8760    -0.0330     9.9978 </r>
       <r>    -0.8262    -0.0482     9.9954 </r>
       <r>    -0.7764     0.0342     9.9971 </r>
       <r>    -0.7266     0.4165    10.0178 </r>
       <r>    -0.6768     1.4701    10.0910 </r>
       <r>    -0.6270     3.2148    10.2511 </r>
       <r>    -0.5773     4.7004    10.4851 </r>
       <r>    -0.5275     5.4024    10.7541 </r>
       <r>    -0.4777     5.9144    11.0487 </r>
       <r>    -0.4279     5.7220    11.3336 </r>
       <r>    -0.3781     3.9158    11.5286 </r>
       <r>    -0.3283     2.0105    11.6287 </r>
       <r>    -0.2785     2.0510    11.7308 </r>
       <r>    -0.2287     3.3417    11.8972 </r>
       <r>    -0.1789     3.9896    12.0959 </r>
       <r>    -0.1291     4.0672    12.2984 </r>
       <r>    -0.0793     4.3764    12.5163 </r>
       <r>    -0.0295     4.2748    12.7292 </r>
       <r>     0.0203     3.6269    12.9098 </r>
       <r>     0.0701     3.7580    13.0969 </r>
       <r>     0.1199     4.6399    13.3280 </r>
       <r>     0.1697     4.4165    13.5479 </r>
       <r>     0.2195     2.7970    13.6872 </r>
       <r>     0.2693     1.6215    13.7679 </r>
       <r>     0.3191     1.5910    13.8471 </r>
       <r>     0.3689     1.6110    13.9274 </r>
       <r>     0.4187     1.0634    13.9803 </r>
       <r>     0.4685     0.4023    14.0003 </r>
       <r>     0.5182     0.0531    14.0030 </r>
       <r>     0.5680    -0.0298    14.0015 </r>
       <r>     0.6178    -0.0216    14.0004 </r>
       <r>     0.6676    -0.0071    14.0001 </r>
       <r>     0.7174    -0.0014    14.0000 </r>
       <r>     0.7672    -0.0002    14.0000 </r>
       <r>     0.8170    -0.0000    14.0000 </r>
       <r>     0.8668    -0.0000    14.0000 </r>
       <r>     0.9166    -0.0000    14.0000 </r>
       <r>     0.9664    -0.0000    14.0000 </r>
       <r>     1.0162    -0.0000    14.0000 </r>
       <r>     1.0660    -0.0000    14.0000 </r>
       <r>     1.1158    -0.0000    14.0000 </r>
       <r>     1.1656    -0.0000    14.0000 </r>
       <r>     1.2154    -0.0005    14.0000 </r>
       <r>     1.2652    -0.0040    13.9998 </r>
       <r>     1.3150    -0.0164    13.9990 </r>
       <r>     1.3648    -0.0196    13.9980 </r>
       <r>     1.4146     0.0789    14.0019 </r>
       <r>     1.4644     0.3225    14.0180 </r>
       <r>     1.5142     0.4682    14.0413 </r>
       <r>     1.5639     0.3131    14.0569 </r>
       <r>     1.6137     0.1453    14.0641 </r>
       <r>     1.6635     0.2917    14.0786 </r>
       <r>     1.7133     0.5994    14.1085 </r>
       <r>     1.7631     0.7966    14.1481 </r>
       <r>     1.8129     0.9960    14.1977 </r>
       <r>     1.8627     1.3302    14.2640 </r>
       <r>     1.9125     1.6272    14.3450 </r>
       <r>     1.9623     1.9558    14.4424 </r>
       <r>     2.0121     2.4599    14.5649 </r>
       <r>     2.0619     2.7462    14.7016 </r>
       <r>     2.1117     2.6701    14.8346 </r>
       <r>     2.1615     2.5325    14.9607 </r>
       <r>     2.2113     2.3273    15.0766 </r>
       <r>     2.2611     2.1882    15.1856 </r>
       <r>     2.3109     2.5023    15.3102 </r>
       <r>     2.3607     3.1581    15.4674 </r>
       <r>     2.4105     3.2520    15.6294 </r>
       <r>     2.4603     2.5423    15.7559 </r>
       <r>     2.5101     1.9008    15.8506 </r>
       <r>     2.5599     1.4649    15.9235 </r>
       <r>     2.6097     0.8405    15.9654 </r>
       <r>     2.6594     0.2724    15.9790 </r>
       <r>     2.7092     0.0847    15.9832 </r>
       <r>     2.7590     0.1414    15.9902 </r>
       <r>     2.8088     0.1498    15.9977 </r>
       <r>     2.8586     0.0606    16.0007 </r>
       <r>     2.9084    -0.0018    16.0006 </r>
       <r>     2.9582    -0.0089    16.0002 </r>
       <r>     3.0080    -0.0029    16.0000 </r>
       <r>     3.0578    -0.0004    16.0000 </r>
       <r>     3.1076    -0.0000    16.0000 </r>
       <r>     3.1574    -0.0000    16.0000 </r>
       <r>     3.2072    -0.0000    16.0000 </r>
       <r>     3.2570    -0.0000    16.0000 </r>
       <r>     3.3068    -0.0000    16.0000 </r>
       <r>     3.3566    -0.0000    16.0000 </r>
       <r>     3.4064    -0.0000    16.0000 </r>
       <r>     3.4562     0.0000    16.0000 </r>
       <r>     3.5060     0.0000    16.0000 </r>
       <r>     3.5558     0.0000    16.0000 </r>
       <r>     3.6056     0.0000    16.0000 </r>
       <r>     3.6554     0.0000    16.0000 </r>
       <r>     3.7051     0.0000    16.0000 </r>
       <r>     3.7549     0.0000    16.0000 </r>
      </set>
     </set>
    </array>
   </total>
  </dos>
 </calculation>
 <structure name="finalpos" >
  <crystal>
   <varray name="basis" >
    <v>       5.43000000       0.00000000       0.00000000 </v>
    <v>       0.00000000       5.43000000       0.00000000 </v>
    <v>       0.00000000       0.00000000       5.43000000 </v>
   </varray>
   <i name="volume">    160.10300700 </i>
   <varray name="rec_basis" >
    <v>       0.18416206       0.00000000       0.00000000 </v>
    <v>       0.00000000       0.18416206       0.00000000 </v>
    <v>       0.00000000       0.00000000       0.18416206 </v>
   </varray>
  </crystal>
  <varray name="positions" >
   <v>       0.00000000       0.00000000       0.00000000 </v>
   <v>       0.25000000       0.25000000       0.25000000 </v>
  </varray>
 </structure>
</modeling>
