Si DFT Virtual Orbitals                 
   5.43000000000000     
     0.500000    0.500000    0.000000
     0.000000    0.500000    0.500000
     0.500000    0.000000    0.500000
   Si
     2
Direct
  0.000000  0.000000  0.000000
  0.250000  0.250000  0.250000
 
   56   56   56
 -.79372     -.40793     0.70573      2.4240      4.5653      6.9194      9.2770      11.455      13.310      14.747    
  15.716      16.207      16.247      15.892      15.223      14.337      13.339      12.325      11.357      10.462    
  9.6597      8.9571      8.3557      7.8529      7.4449      7.1286      6.9026      6.7667      6.7213      6.7667    
  6.9026      7.1286      7.4449      7.8529      8.3557      8.9571      9.6597      10.462      11.357      12.325    
  13.339      14.337      15.223      15.892      16.247      16.207      15.716      14.747      13.310      11.455    
  9.2770      6.9194      4.5653      2.4240     0.70573     -.40793     -.40793     0.38249      1.8729      3.8988    
  6.2504      8.7052      11.058      13.141      14.834      16.067      16.812      17.081      16.918      16.395    
  15.602      14.644      13.623      12.621      11.679      10.819      10.053      9.3876      8.8217      8.3527    
  7.9779      7.6961      7.5074      7.4127      7.4127      7.5074      7.6961      7.9779      8.3527      8.8217    
  9.3876      10.053      10.819      11.679      12.621      13.623      14.644      15.602      16.395      16.918    
  17.081      16.812      16.067      14.834      13.141      11.058      8.7052      6.2504      3.8988      1.8729    
 0.38249     -.40793     0.70573      1.8729      3.6686      5.8978      8.3365      10.765      12.995      14.883    
  16.336      17.308      17.794      17.826      17.463      16.787      15.898      14.899      13.886      12.914    
  12.010      11.193      10.471      9.8470      9.3193      8.8865      8.5477      8.3038      8.1564      8.1070    
  8.1564      8.3038      8.5477      8.8865      9.3193      9.8470      10.471      11.193      12.010      12.914    
  13.886      14.899      15.898      16.787      17.463      17.826      17.794      17.308      16.336      14.883    
  12.995      10.765      8.3365      5.8978      3.6686      1.8729     0.70573     0.30085      2.4240      3.8988    
  5.8978      8.2092      10.610      12.898      14.909      16.528      17.690      18.373      18.592      18.395    
  17.853      17.059      16.112      15.112      14.131      13.204      12.350      11.584      10.909      10.328    
  9.8401      9.4452      9.1450      8.9423      8.8400      8.8400      8.9423      9.1450      9.4452      9.8401    
  10.328      10.909      11.584      12.350      13.204      14.131      15.112      16.112      17.059      17.853    
  18.395      18.592      18.373      17.690      16.528      14.909      12.898      10.610      8.2092      5.8978    
  3.8988      2.4240      1.6405      1.6405      4.5653      6.2504      8.3365      10.610      12.864      14.919    
  16.643      17.950      18.800      19.193      19.160      18.762      18.082      17.213      16.255      15.290    
  14.361      13.490      12.695      11.982      11.357      10.820      10.372      10.016      9.7567      9.5987    
  9.5456      9.5987      9.7567      10.016      10.372      10.820      11.357      11.982      12.695      13.490    
  14.361      15.290      16.255      17.213      18.082      18.762      19.160      19.193      18.800      17.950    
  16.643      14.919      12.864      10.610      8.3365      6.2504      4.5653      3.4683      3.0874      3.4683    
  6.9194      8.7052      10.765      12.898      14.919      16.682      18.083      19.063      19.606      19.729    
  19.480      18.928      18.160      17.271      16.347      15.440      14.575      13.770      13.036      12.379    
  11.802      11.307      10.899      10.583      10.368      10.258      10.258      10.368      10.583      10.899    
  11.307      11.802      12.379      13.036      13.770      14.575      15.440      16.347      17.271      18.160    
  18.928      19.480      19.729      19.606      19.063      18.083      16.682      14.919      12.898      10.765    
  8.7052      6.9194      5.6000      4.8985      4.8985      5.6000      9.2770      11.058      12.995      14.909    
  16.643      18.083      19.152      19.817      20.081      19.976      19.560      18.912      18.115      17.258    
  16.399      15.563      14.772      14.036      13.363      12.759      12.226      11.772      11.403      11.129    
  10.961      10.903      10.961      11.129      11.403      11.772      12.226      12.759      13.363      14.036    
  14.772      15.563      16.399      17.258      18.115      18.912      19.560      19.976      20.081      19.817    
  19.152      18.083      16.643      14.909      12.995      11.058      9.2770      7.8372      6.8992      6.5735    
  6.8992      7.8372      11.455      13.141      14.883      16.528      17.950      19.063      19.817      20.200    
  20.229      19.952      19.433      18.750      17.984      17.196      16.415      15.660      14.945      14.277    
  13.661      13.104      12.612      12.193      11.861      11.630      11.511      11.511      11.630      11.861    
  12.193      12.612      13.104      13.661      14.277      14.945      15.660      16.415      17.196      17.984    
  18.750      19.433      19.952      20.229      20.200      19.817      19.063      17.950      16.528      14.883    
  13.141      11.455      9.9923      8.9117      8.3372      8.3372      8.9117      9.9923      13.310      14.834    
  16.336      17.690      18.800      19.606      20.081      20.229      20.085      19.700      19.143      18.488    
  17.795      17.092      16.399      15.727      15.084      14.478      13.911      13.391      12.929      12.541    
  12.246      12.061      11.998      12.061      12.246      12.541      12.929      13.391      13.911      14.478    
  15.084      15.727      16.399      17.092      17.795      18.488      19.143      19.700      20.085      20.229    
  20.081      19.606      18.800      17.690      16.336      14.834      13.310      11.908      10.775      10.038    
  9.7816      10.038      10.775      11.908      14.747      16.067      17.308      18.373      19.193      19.729    
  19.976      19.952      19.700      19.277      18.747      18.167      17.563      16.953      16.347      15.753    
  15.176      14.618      14.085      13.590      13.151      12.793      12.539      12.406      12.406      12.539    
  12.793      13.151      13.590      14.085      14.618      15.176      15.753      16.347      16.953      17.563    
  18.167      18.747      19.277      19.700      19.952      19.976      19.729      19.193      18.373      17.308    
  16.067      14.747      13.469      12.361      11.543      11.108      11.108      11.543      12.361      13.469    
  15.716      16.812      17.794      18.592      19.160      19.480      19.560      19.433      19.143      18.747    
  18.293      17.805      17.297      16.778      16.255      15.729      15.199      14.671      14.156      13.677    
  13.262      12.938      12.732      12.661      12.732      12.938      13.262      13.677      14.156      14.671    
  15.199      15.729      16.255      16.778      17.297      17.805      18.293      18.747      19.143      19.433    
  19.560      19.480      19.160      18.592      17.794      16.812      15.716      14.602      13.578      12.750    
  12.212      12.025      12.212      12.750      13.578      14.602      16.207      17.081      17.826      18.395    
  18.762      18.928      18.912      18.750      18.488      18.167      17.805      17.413      16.999      16.566    
  16.112      15.632      15.128      14.613      14.109      13.646      13.257      12.977      12.829      12.829    
  12.977      13.257      13.646      14.109      14.613      15.128      15.632      16.112      16.566      16.999    
  17.413      17.805      18.167      18.488      18.750      18.912      18.928      18.762      18.395      17.826    
  17.081      16.207      15.277      14.375      13.593      13.016      12.710      12.710      13.016      13.593    
  14.375      15.277      16.247      16.918      17.463      17.853      18.082      18.160      18.115      17.984    
  17.795      17.563      17.297      16.999      16.671      16.307      15.898      15.442      14.949      14.439    
  13.944      13.501      13.151      12.925      12.847      12.925      13.151      13.501      13.944      14.439    
  14.949      15.442      15.898      16.307      16.671      16.999      17.297      17.563      17.795      17.984    
  18.115      18.160      18.082      17.853      17.463      16.918      16.247      15.499      14.738      14.039    
  13.475      13.109      12.981      13.109      13.475      14.039      14.738      15.499      15.892      16.395    
  16.787      17.059      17.213      17.271      17.258      17.196      17.092      16.953      16.778      16.566    
  16.307      15.988      15.602      15.154      14.662      14.156      13.676      13.266      12.966      12.807    
  12.807      12.966      13.266      13.676      14.156      14.662      15.154      15.602      15.988      16.307    
  16.566      16.778      16.953      17.092      17.196      17.258      17.271      17.213      17.059      16.787    
  16.395      15.892      15.309      14.691      14.093      13.576      13.195      12.993      12.993      13.195    
  13.576      14.093      14.691      15.309      15.223      15.602      15.898      16.112      16.255      16.347    
  16.399      16.415      16.399      16.347      16.255      16.112      15.898      15.602      15.223      14.774    
  14.282      13.788      13.336      12.973      12.737      12.655      12.737      12.973      13.336      13.788    
  14.282      14.774      15.223      15.602      15.898      16.112      16.255      16.347      16.399      16.415    
  16.399      16.347      16.255      16.112      15.898      15.602      15.223      14.774      14.282      13.788    
  13.336      12.973      12.737      12.655      12.737      12.973      13.336      13.788      14.282      14.774    
  14.337      14.644      14.899      15.112      15.290      15.440      15.563      15.660      15.727      15.753    
  15.729      15.632      15.442      15.154      14.774      14.324      13.842      13.373      12.965      12.663    
  12.503      12.503      12.663      12.965      13.373      13.842      14.324      14.774      15.154      15.442    
  15.632      15.729      15.753      15.727      15.660      15.563      15.440      15.290      15.112      14.899    
  14.644      14.337      13.981      13.589      13.185      12.801      12.473      12.232      12.104      12.104    
  12.232      12.473      12.801      13.185      13.589      13.981      13.339      13.623      13.886      14.131    
  14.361      14.575      14.772      14.945      15.084      15.176      15.199      15.128      14.949      14.662    
  14.282      13.842      13.384      12.957      12.609      12.382      12.303      12.382      12.609      12.957    
  13.384      13.842      14.282      14.662      14.949      15.128      15.199      15.176      15.084      14.945    
  14.772      14.575      14.361      14.131      13.886      13.623      13.339      13.031      12.704      12.367    
  12.041      11.750      11.519      11.371      11.320      11.371      11.519      11.750      12.041      12.367    
  12.704      13.031      12.325      12.621      12.914      13.204      13.490      13.770      14.036      14.277    
  14.478      14.618      14.671      14.613      14.439      14.156      13.788      13.373      12.957      12.589    
  12.315      12.168      12.168      12.315      12.589      12.957      13.373      13.788      14.156      14.439    
  14.613      14.671      14.618      14.478      14.277      14.036      13.770      13.490      13.204      12.914    
  12.621      12.325      12.025      11.724      11.424      11.137      10.876      10.660      10.504      10.422    
  10.422      10.504      10.660      10.876      11.137      11.424      11.724      12.025      11.357      11.679    
  12.010      12.350      12.695      13.036      13.363      13.661      13.911      14.085      14.156      14.109    
  13.944      13.676      13.336      12.965      12.609      12.315      12.121      12.053      12.121      12.315    
  12.609      12.965      13.336      13.676      13.944      14.109      14.156      14.085      13.911      13.661    
  13.363      13.036      12.695      12.350      12.010      11.679      11.357      11.044      10.741      10.450    
  10.178      9.9326      9.7244      9.5648      9.4642      9.4298      9.4642      9.5648      9.7244      9.9326    
  10.178      10.450      10.741      11.044      10.462      10.819      11.193      11.584      11.982      12.379    
  12.759      13.104      13.391      13.590      13.677      13.646      13.501      13.266      12.973      12.663    
  12.382      12.168      12.053      12.053      12.168      12.382      12.663      12.973      13.266      13.501    
  13.646      13.677      13.590      13.391      13.104      12.759      12.379      11.982      11.584      11.193    
  10.819      10.462      10.126      9.8089      9.5127      9.2399      8.9954      8.7859      8.6194      8.5034    
  8.4437      8.4437      8.5034      8.6194      8.7859      8.9954      9.2399      9.5127      9.8089      10.126    
  9.6597      10.053      10.471      10.909      11.357      11.802      12.226      12.612      12.929      13.151    
  13.262      13.257      13.151      12.966      12.737      12.503      12.303      12.168      12.121      12.168    
  12.303      12.503      12.737      12.966      13.151      13.257      13.262      13.151      12.929      12.612    
  12.226      11.802      11.357      10.909      10.471      10.053      9.6597      9.2934      8.9549      8.6442    
  8.3623      8.1115      7.8956      7.7197      7.5892      7.5087      7.4815      7.5087      7.5892      7.7197    
  7.8956      8.1115      8.3623      8.6442      8.9549      9.2934      8.9571      9.3876      9.8470      10.328    
  10.820      11.307      11.772      12.193      12.541      12.793      12.938      12.977      12.925      12.807    
  12.655      12.503      12.382      12.315      12.315      12.382      12.503      12.655      12.807      12.925    
  12.977      12.938      12.793      12.541      12.193      11.772      11.307      10.820      10.328      9.8470    
  9.3876      8.9571      8.5591      8.1948      7.8643      7.5674      7.3048      7.0785      6.8912      6.7465    
  6.6477      6.5976      6.5976      6.6477      6.7465      6.8912      7.0785      7.3048      7.5674      7.8643    
  8.1948      8.5591      8.3557      8.8217      9.3193      9.8401      10.372      10.899      11.403      11.861    
  12.246      12.539      12.732      12.829      12.847      12.807      12.737      12.663      12.609      12.589    
  12.609      12.663      12.737      12.807      12.847      12.829      12.732      12.539      12.246      11.861    
  11.403      10.899      10.372      9.8401      9.3193      8.8217      8.3557      7.9262      7.5349      7.1820    
  6.8669      6.5892      6.3494      6.1489      5.9896      5.8738      5.8035      5.7799      5.8035      5.8738    
  5.9896      6.1489      6.3494      6.5892      6.8669      7.1820      7.5349      7.9262      7.8529      8.3527    
  8.8865      9.4452      10.016      10.583      11.129      11.630      12.061      12.406      12.661      12.829    
  12.925      12.966      12.973      12.965      12.957      12.957      12.965      12.973      12.966      12.925    
  12.829      12.661      12.406      12.061      11.630      11.129      10.583      10.016      9.4452      8.8865    
  8.3527      7.8529      7.3928      6.9745      6.5985      6.2636      5.9691      5.7143      5.4994      5.3254    
  5.1933      5.1045      5.0598      5.0598      5.1045      5.1933      5.3254      5.4994      5.7143      5.9691    
  6.2636      6.5985      6.9745      7.3928      7.4449      7.9779      8.5477      9.1450      9.7567      10.368    
  10.961      11.511      11.998      12.406      12.732      12.977      13.151      13.266      13.336      13.373    
  13.384      13.373      13.336      13.266      13.151      12.977      12.732      12.406      11.998      11.511    
  10.961      10.368      9.7567      9.1450      8.5477      7.9779      7.4449      6.9545      6.5095      6.1100    
  5.7550      5.4428      5.1723      4.9426      4.7538      4.6061      4.5001      4.4363      4.4150      4.4363    
  4.5001      4.6061      4.7538      4.9426      5.1723      5.4428      5.7550      6.1100      6.5095      6.9545    
  7.1286      7.6961      8.3038      8.9423      9.5987      10.258      10.903      11.511      12.061      12.539    
  12.938      13.257      13.501      13.676      13.788      13.842      13.842      13.788      13.676      13.501    
  13.257      12.938      12.539      12.061      11.511      10.903      10.258      9.5987      8.9423      8.3038    
  7.6961      7.1286      6.6072      6.1347      5.7112      5.3353      5.0050      4.7182      4.4735      4.2700    
  4.1073      3.9854      3.9041      3.8634      3.8634      3.9041      3.9854      4.1073      4.2700      4.4735    
  4.7182      5.0050      5.3353      5.7112      6.1347      6.6072      6.9026      7.5074      8.1564      8.8400    
  9.5456      10.258      10.961      11.630      12.246      12.793      13.262      13.646      13.944      14.156    
  14.282      14.324      14.282      14.156      13.944      13.646      13.262      12.793      12.246      11.630    
  10.961      10.258      9.5456      8.8400      8.1564      7.5074      6.9026      6.3479      5.8460      5.3968    
  4.9988      4.6492      4.3454      4.0852      3.8671      3.6899      3.5528      3.4553      3.3970      3.3776    
  3.3970      3.4553      3.5528      3.6899      3.8671      4.0852      4.3454      4.6492      4.9988      5.3968    
  5.8460      6.3479      6.7667      7.4127      8.1070      8.8400      9.5987      10.368      11.129      11.861    
  12.541      13.151      13.677      14.109      14.439      14.662      14.774      14.774      14.662      14.439    
  14.109      13.677      13.151      12.541      11.861      11.129      10.368      9.5987      8.8400      8.1070    
  7.4127      6.7667      6.1751      5.6407      5.1631      4.7405      4.3698      4.0476      3.7711      3.5378    
  3.3460      3.1943      3.0816      3.0071      2.9699      2.9699      3.0071      3.0816      3.1943      3.3460    
  3.5378      3.7711      4.0476      4.3698      4.7405      5.1631      5.6407      6.1751      6.7213      7.4127    
  8.1564      8.9423      9.7567      10.583      11.403      12.193      12.929      13.590      14.156      14.613    
  14.949      15.154      15.223      15.154      14.949      14.613      14.156      13.590      12.929      12.193    
  11.403      10.583      9.7567      8.9423      8.1564      7.4127      6.7213      6.0887      5.5177      5.0080    
  4.5576      4.1628      3.8199      3.5252      3.2757      3.0688      2.9025      2.7751      2.6852      2.6317    
  2.6140      2.6317      2.6852      2.7751      2.9025      3.0688      3.2757      3.5252      3.8199      4.1628    
  4.5576      5.0080      5.5177      6.0887      6.7667      7.5074      8.3038      9.1450      10.016      10.899    
  11.772      12.612      13.391      14.085      14.671      15.128      15.442      15.602      15.602      15.442    
  15.128      14.671      14.085      13.391      12.612      11.772      10.899      10.016      9.1450      8.3038    
  7.5074      6.7667      6.0887      5.4767      4.9306      4.4482      4.0258      3.6590      3.3437      3.0760    
  2.8527      2.6711      2.5289      2.4242      2.3554      2.3212      2.3212      2.3554      2.4242      2.5289    
  2.6711      2.8527      3.0760      3.3437      3.6590      4.0258      4.4482      4.9306      5.4767      6.0887    
  6.9026      7.6961      8.5477      9.4452      10.372      11.307      12.226      13.104      13.911      14.618    
  15.199      15.632      15.898      15.988      15.898      15.632      15.199      14.618      13.911      13.104    
  12.226      11.307      10.372      9.4452      8.5477      7.6961      6.9026      6.1751      5.5177      4.9306    
  4.4118      3.9575      3.5630      3.2238      2.9353      2.6936      2.4955      2.3379      2.2182      2.1344    
  2.0848      2.0684      2.0848      2.1344      2.2182      2.3379      2.4955      2.6936      2.9353      3.2238    
  3.5630      3.9575      4.4118      4.9306      5.5177      6.1751      7.1286      7.9779      8.8865      9.8401    
  10.820      11.802      12.759      13.661      14.478      15.176      15.729      16.112      16.307      16.307    
  16.112      15.729      15.176      14.478      13.661      12.759      11.802      10.820      9.8401      8.8865    
  7.9779      7.1286      6.3479      5.6407      5.0080      4.4482      3.9575      3.5311      3.1641      2.8515    
  2.5889      2.3723      2.1979      2.0626      1.9638      1.8992      1.8673      1.8673      1.8992      1.9638    
  2.0626      2.1979      2.3723      2.5889      2.8515      3.1641      3.5311      3.9575      4.4482      5.0080    
  5.6407      6.3479      7.4449      8.3527      9.3193      10.328      11.357      12.379      13.363      14.277    
  15.084      15.753      16.255      16.566      16.671      16.566      16.255      15.753      15.084      14.277    
  13.363      12.379      11.357      10.328      9.3193      8.3527      7.4449      6.6072      5.8460      5.1631    
  4.5576      4.0258      3.5630      3.1641      2.8237      2.5370      2.2992      2.1061      1.9540      1.8394    
  1.7598      1.7128      1.6974      1.7128      1.7598      1.8394      1.9540      2.1061      2.2992      2.5370    
  2.8237      3.1641      3.5630      4.0258      4.5576      5.1631      5.8460      6.6072      7.8529      8.8217    
  9.8470      10.909      11.982      13.036      14.036      14.945      15.727      16.347      16.778      16.999    
  16.999      16.778      16.347      15.727      14.945      14.036      13.036      11.982      10.909      9.8470    
  8.8217      7.8529      6.9545      6.1347      5.3968      4.7405      4.1628      3.6590      3.2238      2.8515    
  2.5370      2.2749      2.0606      1.8897      1.7583      1.6629      1.6009      1.5703      1.5703      1.6009    
  1.6629      1.7583      1.8897      2.0606      2.2749      2.5370      2.8515      3.2238      3.6590      4.1628    
  4.7405      5.3968      6.1347      6.9545      8.3557      9.3876      10.471      11.584      12.695      13.770    
  14.772      15.660      16.399      16.953      17.297      17.413      17.297      16.953      16.399      15.660    
  14.772      13.770      12.695      11.584      10.471      9.3876      8.3557      7.3928      6.5095      5.7112    
  4.9988      4.3698      3.8199      3.3437      2.9353      2.5889      2.2992      2.0606      1.8685      1.7182    
  1.6059      1.5281      1.4825      1.4674      1.4825      1.5281      1.6059      1.7182      1.8685      2.0606    
  2.2992      2.5889      2.9353      3.3437      3.8199      4.3698      4.9988      5.7112      6.5095      7.3928    
  8.9571      10.053      11.193      12.350      13.490      14.575      15.563      16.415      17.092      17.563    
  17.805      17.805      17.563      17.092      16.415      15.563      14.575      13.490      12.350      11.193    
  10.053      8.9571      7.9262      6.9745      6.1100      5.3353      4.6492      4.0476      3.5252      3.0760    
  2.6936      2.3723      2.1061      1.8897      1.7182      1.5870      1.4923      1.4310      1.4008      1.4008    
  1.4310      1.4923      1.5870      1.7182      1.8897      2.1061      2.3723      2.6936      3.0760      3.5252    
  4.0476      4.6492      5.3353      6.1100      6.9745      7.9262      9.6597      10.819      12.010      13.204    
  14.361      15.440      16.399      17.196      17.795      18.167      18.293      18.167      17.795      17.196    
  16.399      15.440      14.361      13.204      12.010      10.819      9.6597      8.5591      7.5349      6.5985    
  5.7550      5.0050      4.3454      3.7711      3.2757      2.8527      2.4955      2.1979      1.9540      1.7583    
  1.6059      1.4923      1.4140      1.3681      1.3530      1.3681      1.4140      1.4923      1.6059      1.7583    
  1.9540      2.1979      2.4955      2.8527      3.2757      3.7711      4.3454      5.0050      5.7550      6.5985    
  7.5349      8.5591      10.462      11.679      12.914      14.131      15.290      16.347      17.258      17.984    
  18.488      18.747      18.747      18.488      17.984      17.258      16.347      15.290      14.131      12.914    
  11.679      10.462      9.2934      8.1948      7.1820      6.2636      5.4428      4.7182      4.0852      3.5378    
  3.0688      2.6711      2.3379      2.0626      1.8394      1.6629      1.5281      1.4310      1.3681      1.3373    
  1.3373      1.3681      1.4310      1.5281      1.6629      1.8394      2.0626      2.3379      2.6711      3.0688    
  3.5378      4.0852      4.7182      5.4428      6.2636      7.1820      8.1948      9.2934      11.357      12.621    
  13.886      15.112      16.255      17.271      18.115      18.750      19.143      19.277      19.143      18.750    
  18.115      17.271      16.255      15.112      13.886      12.621      11.357      10.126      8.9549      7.8643    
  6.8669      5.9691      5.1723      4.4735      3.8671      3.3460      2.9025      2.5289      2.2182      1.9638    
  1.7598      1.6009      1.4825      1.4008      1.3530      1.3373      1.3530      1.4008      1.4825      1.6009    
  1.7598      1.9638      2.2182      2.5289      2.9025      3.3460      3.8671      4.4735      5.1723      5.9691    
  6.8669      7.8643      8.9549      10.126      12.325      13.623      14.899      16.112      17.213      18.160    
  18.912      19.433      19.700      19.700      19.433      18.912      18.160      17.213      16.112      14.899    
  13.623      12.325      11.044      9.8089      8.6442      7.5674      6.5892      5.7143      4.9426      4.2700    
  3.6899      3.1943      2.7751      2.4242      2.1344      1.8992      1.7128      1.5703      1.4674      1.4008    
  1.3681      1.3681      1.4008      1.4674      1.5703      1.7128      1.8992      2.1344      2.4242      2.7751    
  3.1943      3.6899      4.2700      4.9426      5.7143      6.5892      7.5674      8.6442      9.8089      11.044    
  13.339      14.644      15.898      17.059      18.082      18.928      19.560      19.952      20.085      19.952    
  19.560      18.928      18.082      17.059      15.898      14.644      13.339      12.025      10.741      9.5127    
  8.3623      7.3048      6.3494      5.4994      4.7538      4.1073      3.5528      3.0816      2.6852      2.3554    
  2.0848      1.8673      1.6974      1.5703      1.4825      1.4310      1.4140      1.4310      1.4825      1.5703    
  1.6974      1.8673      2.0848      2.3554      2.6852      3.0816      3.5528      4.1073      4.7538      5.4994    
  6.3494      7.3048      8.3623      9.5127      10.741      12.025      14.337      15.602      16.787      17.853    
  18.762      19.480      19.976      20.229      20.229      19.976      19.480      18.762      17.853      16.787    
  15.602      14.337      13.031      11.724      10.450      9.2399      8.1115      7.0785      6.1489      5.3254    
  4.6061      3.9854      3.4553      3.0071      2.6317      2.3212      2.0684      1.8673      1.7128      1.6009    
  1.5281      1.4923      1.4923      1.5281      1.6009      1.7128      1.8673      2.0684      2.3212      2.6317    
  3.0071      3.4553      3.9854      4.6061      5.3254      6.1489      7.0785      8.1115      9.2399      10.450    
  11.724      13.031      15.223      16.395      17.463      18.395      19.160      19.729      20.081      20.200    
  20.081      19.729      19.160      18.395      17.463      16.395      15.223      13.981      12.704      11.424    
  10.178      8.9954      7.8956      6.8912      5.9896      5.1933      4.5001      3.9041      3.3970      2.9699    
  2.6140      2.3212      2.0848      1.8992      1.7598      1.6629      1.6059      1.5870      1.6059      1.6629    
  1.7598      1.8992      2.0848      2.3212      2.6140      2.9699      3.3970      3.9041      4.5001      5.1933    
  5.9896      6.8912      7.8956      8.9954      10.178      11.424      12.704      13.981      15.892      16.918    
  17.826      18.592      19.193      19.606      19.817      19.817      19.606      19.193      18.592      17.826    
  16.918      15.892      14.774      13.589      12.367      11.137      9.9326      8.7859      7.7197      6.7465    
  5.8738      5.1045      4.4363      3.8634      3.3776      2.9699      2.6317      2.3554      2.1344      1.9638    
  1.8394      1.7583      1.7182      1.7182      1.7583      1.8394      1.9638      2.1344      2.3554      2.6317    