Si DFT Virtual Orbitals                 
   5.43000000000000     
     0.500000    0.500000    0.000000
     0.000000    0.500000    0.500000
     0.500000    0.000000    0.500000
   Si
     2
Direct
  0.000000  0.000000  0.000000
  0.250000  0.250000  0.250000
 
   56   56   56
 -.79371751675E+00 -.40793003041E+00 0.70573181827E+00 0.24239887348E+01 0.45653482085E+01
 0.69194253578E+01 0.92770460873E+01 0.11454752471E+02 0.13310053760E+02 0.14747206758E+02
 0.15716027693E+02 0.16207243161E+02 0.16247086215E+02 0.15892025770E+02 0.15222888506E+02
 0.14337129521E+02 0.13338784447E+02 0.12325401008E+02 0.11356852274E+02 0.10462313969E+02
 0.96596538438E+01 0.89570726591E+01 0.83557338578E+01 0.78529257330E+01 0.74448679656E+01
 0.71285743833E+01 0.69025784645E+01 0.67667058709E+01 0.67213401555E+01 0.67667058723E+01
 0.69025784660E+01 0.71285743832E+01 0.74448679626E+01 0.78529257273E+01 0.83557338510E+01
 0.89570726538E+01 0.96596538423E+01 0.10462313972E+02 0.11356852280E+02 0.12325401014E+02
 0.13338784450E+02 0.14337129518E+02 0.15222888499E+02 0.15892025761E+02 0.16247086210E+02
 0.16207243165E+02 0.15716027711E+02 0.14747206788E+02 0.13310053797E+02 0.11454752508E+02
 0.92770461172E+01 0.69194253752E+01 0.45653482124E+01 0.24239887286E+01 0.70573180840E+00
 -.40793003740E+00 -.40793003041E+00 0.38248803027E+00 0.18728619790E+01 0.38987810117E+01
 0.62503550126E+01 0.87051527591E+01 0.11057804074E+02 0.13140708960E+02 0.14834013904E+02
 0.16066573315E+02 0.16811610101E+02 0.17080693921E+02 0.16917986793E+02 0.16394669938E+02
 0.15602267160E+02 0.14643774180E+02 0.13622740991E+02 0.12621485298E+02 0.11679014812E+02
 0.10818523498E+02 0.10053098090E+02 0.93876227391E+01 0.88216994842E+01 0.83526588955E+01
 0.79778961131E+01 0.76961079806E+01 0.75074130726E+01 0.74126927801E+01 0.74126927812E+01
 0.75074130751E+01 0.76961079826E+01 0.79778961125E+01 0.83526588915E+01 0.88216994779E+01
 0.93876227327E+01 0.10053098087E+02 0.10818523499E+02 0.11679014818E+02 0.12621485306E+02
 0.13622740997E+02 0.14643774181E+02 0.15602267155E+02 0.16394669930E+02 0.16917986786E+02
 0.17080693922E+02 0.16811610113E+02 0.16066573339E+02 0.14834013937E+02 0.13140708994E+02
 0.11057804101E+02 0.87051527722E+01 0.62503550096E+01 0.38987809958E+01 0.18728619576E+01
 0.38248801251E+00 -.40793003725E+00 0.70573181827E+00 0.18728619790E+01 0.36686454379E+01
 0.58978177411E+01 0.83364647402E+01 0.10765179497E+02 0.12995092856E+02 0.14882989690E+02
 0.16335808642E+02 0.17307800223E+02 0.17794472159E+02 0.17826290384E+02 0.17462974883E+02
 0.16787475187E+02 0.15898238646E+02 0.14899237704E+02 0.13886106118E+02 0.12913940563E+02
 0.12010485638E+02 0.11193368117E+02 0.10471403232E+02 0.98470333303E+01 0.93192946651E+01
 0.88864614372E+01 0.85477487844E+01 0.83038355234E+01 0.81563784310E+01 0.81070040971E+01
 0.81563784334E+01 0.83038355266E+01 0.85477487865E+01 0.88864614364E+01 0.93192946611E+01
 0.98470333247E+01 0.10471403228E+02 0.11193368116E+02 0.12010485641E+02 0.12913940570E+02
 0.13886106126E+02 0.14899237709E+02 0.15898238645E+02 0.16787475182E+02 0.17462974876E+02
 0.17826290381E+02 0.17794472163E+02 0.17307800237E+02 0.16335808665E+02 0.14882989715E+02
 0.12995092876E+02 0.10765179506E+02 0.83364647336E+01 0.58978177206E+01 0.36686454100E+01
 0.18728619526E+01 0.70573180240E+00 0.30084627660E+00 0.24239887348E+01 0.38987810117E+01
 0.58978177411E+01 0.82091950662E+01 0.10610298126E+02 0.12897907902E+02 0.14908585179E+02
 0.16527777789E+02 0.17689814988E+02 0.18372830684E+02 0.18592307106E+02 0.18395068055E+02
 0.17853499059E+02 0.17058690538E+02 0.16111507267E+02 0.15111615133E+02 0.14131227392E+02
 0.13203645986E+02 0.12350260297E+02 0.11583597335E+02 0.10909150959E+02 0.10328096080E+02
 0.98400521870E+01 0.94451510141E+01 0.91449642341E+01 0.89422630035E+01 0.88399791113E+01
 0.88399791126E+01 0.89422630069E+01 0.91449642378E+01 0.94451510161E+01 0.98400521863E+01
 0.10328096077E+02 0.10909150956E+02 0.11583597333E+02 0.12350260298E+02 0.13203645991E+02
 0.14131227398E+02 0.15111615138E+02 0.16111507270E+02 0.17058690537E+02 0.17853499055E+02
 0.18395068051E+02 0.18592307105E+02 0.18372830688E+02 0.17689814998E+02 0.16527777803E+02
 0.14908585191E+02 0.12897907906E+02 0.10610298119E+02 0.82091950479E+01 0.58978177150E+01
 0.38987809847E+01 0.24239887145E+01 0.16404684762E+01 0.16404684837E+01 0.45653482085E+01
 0.62503550126E+01 0.83364647402E+01 0.10610298126E+02 0.12863891971E+02 0.14919446339E+02
 0.16643400849E+02 0.17950379089E+02 0.18800294565E+02 0.19192526142E+02 0.19159808114E+02
 0.18762459511E+02 0.18082069874E+02 0.17213496344E+02 0.16254916091E+02 0.15290131304E+02
 0.14360507622E+02 0.13490139945E+02 0.12694660649E+02 0.11982458873E+02 0.11357014359E+02
 0.10819613285E+02 0.10371654453E+02 0.10015940929E+02 0.97567242782E+01 0.95987084487E+01
 0.95455729474E+01 0.95987084511E+01 0.97567242821E+01 0.10015940933E+02 0.10371654456E+02
 0.10819613285E+02 0.11357014358E+02 0.11982458872E+02 0.12694660649E+02 0.13490139946E+02
 0.14360507626E+02 0.15290131308E+02 0.16254916095E+02 0.17213496346E+02 0.18082069874E+02
 0.18762459509E+02 0.19159808112E+02 0.19192526141E+02 0.18800294566E+02 0.17950379093E+02
 0.16643400851E+02 0.14919446339E+02 0.12863891966E+02 0.10610298114E+02 0.83364647238E+01
 0.62503549945E+01 0.45653481930E+01 0.34682919994E+01 0.30873821913E+01 0.34682920084E+01
 0.69194253578E+01 0.87051527591E+01 0.10765179497E+02 0.12897907902E+02 0.14919446339E+02
 0.16682085335E+02 0.18082717121E+02 0.19063190380E+02 0.19606120334E+02 0.19729230010E+02
 0.19479637663E+02 0.18927842862E+02 0.18160429763E+02 0.17270940456E+02 0.16347101282E+02
 0.15439748910E+02 0.14574767712E+02 0.13770007798E+02 0.13036246661E+02 0.12379110611E+02
 0.11801630958E+02 0.11306671714E+02 0.10898522522E+02 0.10583239749E+02 0.10367755598E+02
 0.10258207951E+02 0.10258207952E+02 0.10367755601E+02 0.10583239753E+02 0.10898522526E+02
 0.11306671716E+02 0.11801630959E+02 0.12379110611E+02 0.13036246661E+02 0.13770007798E+02
 0.14574767712E+02 0.15439748911E+02 0.16347101285E+02 0.17270940459E+02 0.18160429766E+02
 0.18927842865E+02 0.19479637664E+02 0.19729230010E+02 0.19606120332E+02 0.19063190378E+02
 0.18082717118E+02 0.16682085331E+02 0.14919446336E+02 0.12897907898E+02 0.10765179494E+02
 0.87051527560E+01 0.69194253552E+01 0.56000445708E+01 0.48984987434E+01 0.48984987440E+01
 0.56000445725E+01 0.92770460873E+01 0.11057804074E+02 0.12995092856E+02 0.14908585179E+02
 0.16643400849E+02 0.18082717121E+02 0.19151969441E+02 0.19817232029E+02 0.20080776310E+02
 0.19975759469E+02 0.19560465888E+02 0.18911520848E+02 0.18115492130E+02 0.17258456195E+02
 0.16398625911E+02 0.15563349154E+02 0.14771658983E+02 0.14035939499E+02 0.13363483842E+02
 0.12758846987E+02 0.12226313122E+02 0.11771728862E+02 0.11402986586E+02 0.11129462886E+02
 0.10960612449E+02 0.10903464196E+02 0.10960612450E+02 0.11129462889E+02 0.11402986590E+02
 0.11771728866E+02 0.12226313125E+02 0.12758846989E+02 0.13363483842E+02 0.14035939498E+02
 0.14771658982E+02 0.15563349152E+02 0.16398625911E+02 0.17258456197E+02 0.18115492134E+02
 0.18911520853E+02 0.19560465893E+02 0.19975759473E+02 0.20080776311E+02 0.19817232027E+02
 0.19151969437E+02 0.18082717116E+02 0.16643400847E+02 0.14908585181E+02 0.12995092863E+02
 0.11057804085E+02 0.92770460998E+01 0.78371692072E+01 0.68991992611E+01 0.65734507821E+01
 0.68991992548E+01 0.78371691963E+01 0.11454752471E+02 0.13140708960E+02 0.14882989690E+02
 0.16527777789E+02 0.17950379089E+02 0.19063190380E+02 0.19817232029E+02 0.20199676159E+02
 0.20229470090E+02 0.19952014817E+02 0.19432813719E+02 0.18749690421E+02 0.17983516410E+02
 0.17195866731E+02 0.16415121721E+02 0.15660442173E+02 0.14944874097E+02 0.14276637607E+02
 0.13661290800E+02 0.13104151624E+02 0.12611606418E+02 0.12193053381E+02 0.11861306671E+02
 0.11630161469E+02 0.11511260397E+02 0.11511260398E+02 0.11630161469E+02 0.11861306673E+02
 0.12193053384E+02 0.12611606422E+02 0.13104151627E+02 0.13661290802E+02 0.14276637607E+02
 0.14944874096E+02 0.15660442170E+02 0.16415121718E+02 0.17195866730E+02 0.17983516412E+02
 0.18749690426E+02 0.19432813726E+02 0.19952014824E+02 0.20229470095E+02 0.20199676160E+02
 0.19817232028E+02 0.19063190378E+02 0.17950379089E+02 0.16527777794E+02 0.14882989702E+02
 0.13140708978E+02 0.11454752493E+02 0.99923355381E+01 0.89117132424E+01 0.83371562498E+01
 0.83371562441E+01 0.89117132266E+01 0.99923355163E+01 0.13310053760E+02 0.14834013904E+02
 0.16335808642E+02 0.17689814988E+02 0.18800294565E+02 0.19606120334E+02 0.20080776310E+02
 0.20229470090E+02 0.20084588756E+02 0.19699865199E+02 0.19143158484E+02 0.18487914433E+02
 0.17794831857E+02 0.17092299452E+02 0.16398625911E+02 0.15726532072E+02 0.15084268846E+02
 0.14477624570E+02 0.13911268325E+02 0.13391270092E+02 0.12929158990E+02 0.12541275642E+02
 0.12246164507E+02 0.12060968215E+02 0.11997782461E+02 0.12060968214E+02 0.12246164506E+02
 0.12541275642E+02 0.12929158992E+02 0.13391270094E+02 0.13911268328E+02 0.14477624571E+02
 0.15084268845E+02 0.15726532069E+02 0.16398625907E+02 0.17092299448E+02 0.17794831857E+02
 0.18487914435E+02 0.19143158490E+02 0.19699865207E+02 0.20084588764E+02 0.20229470096E+02
 0.20080776313E+02 0.19606120334E+02 0.18800294565E+02 0.17689814992E+02 0.16335808653E+02
 0.14834013922E+02 0.13310053783E+02 0.11908460845E+02 0.10775449895E+02 0.10037713173E+02
 0.97815823578E+01 0.10037713161E+02 0.10775449875E+02 0.11908460821E+02 0.14747206758E+02
 0.16066573315E+02 0.17307800223E+02 0.18372830684E+02 0.19192526142E+02 0.19729230010E+02
 0.19975759469E+02 0.19952014817E+02 0.19699865199E+02 0.19276532713E+02 0.18746686432E+02
 0.18166612774E+02 0.17563106209E+02 0.16952778089E+02 0.16347101282E+02 0.15753427325E+02
 0.15176493891E+02 0.14618489798E+02 0.14085241091E+02 0.13589718120E+02 0.13151326908E+02
 0.12793303905E+02 0.12538761066E+02 0.12406304207E+02 0.12406304206E+02 0.12538761064E+02
 0.12793303902E+02 0.13151326907E+02 0.13589718120E+02 0.14085241093E+02 0.14618489800E+02
 0.15176493892E+02 0.15753427324E+02 0.16347101279E+02 0.16952778085E+02 0.17563106205E+02
 0.18166612773E+02 0.18746686435E+02 0.19276532718E+02 0.19699865206E+02 0.19952014824E+02
 0.19975759474E+02 0.19729230013E+02 0.19192526143E+02 0.18372830686E+02 0.17307800228E+02
 0.16066573325E+02 0.14747206773E+02 0.13469271152E+02 0.12361113026E+02 0.11542865977E+02
 0.11108089355E+02 0.11108089350E+02 0.11542865964E+02 0.12361113009E+02 0.13469271134E+02
 0.15716027693E+02 0.16811610101E+02 0.17794472159E+02 0.18592307106E+02 0.19159808114E+02
 0.19479637663E+02 0.19560465888E+02 0.19432813719E+02 0.19143158484E+02 0.18746686432E+02
 0.18292669723E+02 0.17804548601E+02 0.17296558370E+02 0.16778146138E+02 0.16254916091E+02
 0.15729014453E+02 0.15199410419E+02 0.14670735111E+02 0.14156242714E+02 0.13677440429E+02
 0.13261640808E+02 0.12937828348E+02 0.12731683295E+02 0.12660870581E+02 0.12731683292E+02
 0.12937828344E+02 0.13261640804E+02 0.13677440426E+02 0.14156242713E+02 0.14670735112E+02
 0.15199410421E+02 0.15729014454E+02 0.16254916090E+02 0.16778146135E+02 0.17296558366E+02
 0.17804548597E+02 0.18292669722E+02 0.18746686433E+02 0.19143158487E+02 0.19432813724E+02
 0.19560465893E+02 0.19479637667E+02 0.19159808117E+02 0.18592307107E+02 0.17794472159E+02
 0.16811610102E+02 0.15716027696E+02 0.14602244341E+02 0.13577839188E+02 0.12750353521E+02
 0.12212015695E+02 0.12025213213E+02 0.12212015692E+02 0.12750353516E+02 0.13577839183E+02
 0.14602244336E+02 0.16207243161E+02 0.17080693921E+02 0.17826290384E+02 0.18395068055E+02
 0.18762459511E+02 0.18927842862E+02 0.18911520848E+02 0.18749690421E+02 0.18487914433E+02
 0.18166612774E+02 0.17804548601E+02 0.17413089838E+02 0.16999078812E+02 0.16565685011E+02
 0.16111507267E+02 0.15631686822E+02 0.15128287795E+02 0.14613381427E+02 0.14109159915E+02
 0.13645823044E+02 0.13257478581E+02 0.12976779639E+02 0.12829378364E+02 0.12829378362E+02
 0.12976779634E+02 0.13257478575E+02 0.13645823038E+02 0.14109159911E+02 0.14613381425E+02
 0.15128287795E+02 0.15631686824E+02 0.16111507268E+02 0.16565685011E+02 0.16999078810E+02
 0.17413089834E+02 0.17804548596E+02 0.18166612770E+02 0.18487914431E+02 0.18749690421E+02
 0.18911520850E+02 0.18927842865E+02 0.18762459513E+02 0.18395068055E+02 0.17826290382E+02
 0.17080693916E+02 0.16207243154E+02 0.15276572334E+02 0.14374645346E+02 0.13592945430E+02
 0.13016258746E+02 0.12710061398E+02 0.12710061399E+02 0.13016258750E+02 0.13592945436E+02
 0.14374645353E+02 0.15276572342E+02 0.16247086215E+02 0.16917986793E+02 0.17462974883E+02
 0.17853499059E+02 0.18082069874E+02 0.18160429763E+02 0.18115492130E+02 0.17983516410E+02
 0.17794831857E+02 0.17563106209E+02 0.17296558370E+02 0.16999078812E+02 0.16670964324E+02
 0.16307134142E+02 0.15898238646E+02 0.15442410177E+02 0.14948929428E+02 0.14438939606E+02
 0.13943843913E+02 0.13501475372E+02 0.13150610708E+02 0.12924821354E+02 0.12846873246E+02
 0.12924821350E+02 0.13150610700E+02 0.13501475363E+02 0.13943843905E+02 0.14438939600E+02
 0.14948929426E+02 0.15442410178E+02 0.15898238648E+02 0.16307134145E+02 0.16670964324E+02
 0.16999078810E+02 0.17296558365E+02 0.17563106203E+02 0.17794831852E+02 0.17983516406E+02
 0.18115492128E+02 0.18160429763E+02 0.18082069875E+02 0.17853499060E+02 0.17462974881E+02
 0.16917986787E+02 0.16247086205E+02 0.15498966802E+02 0.14738445624E+02 0.14039386071E+02
 0.13475232484E+02 0.13108534845E+02 0.12981358194E+02 0.13108534852E+02 0.13475232497E+02
 0.14039386086E+02 0.14738445640E+02 0.15498966816E+02 0.15892025770E+02 0.16394669938E+02
 0.16787475187E+02 0.17058690538E+02 0.17213496344E+02 0.17270940456E+02 0.17258456195E+02
 0.17195866731E+02 0.17092299452E+02 0.16952778089E+02 0.16778146138E+02 0.16565685011E+02
 0.16307134142E+02 0.15988314028E+02 0.15602267160E+02 0.15153933317E+02 0.14661548642E+02
 0.14155705177E+02 0.13676019940E+02 0.13265816998E+02 0.12965679286E+02 0.12807038994E+02
 0.12807038991E+02 0.12965679278E+02 0.13265816987E+02 0.13676019928E+02 0.14155705168E+02
 0.14661548636E+02 0.15153933315E+02 0.15602267161E+02 0.15988314031E+02 0.16307134145E+02
 0.16565685011E+02 0.16778146135E+02 0.16952778084E+02 0.17092299445E+02 0.17195866724E+02
 0.17258456190E+02 0.17270940454E+02 0.17213496345E+02 0.17058690539E+02 0.16787475187E+02
 0.16394669936E+02 0.15892025762E+02 0.15308952524E+02 0.14690539979E+02 0.14092831293E+02
 0.13575782546E+02 0.13194879970E+02 0.12992821264E+02 0.12992821268E+02 0.13194879982E+02
 0.13575782562E+02 0.14092831311E+02 0.14690539995E+02 0.15308952537E+02 0.15222888506E+02
 0.15602267160E+02 0.15898238646E+02 0.16111507267E+02 0.16254916091E+02 0.16347101282E+02
 0.16398625911E+02 0.16415121721E+02 0.16398625911E+02 0.16347101282E+02 0.16254916091E+02
 0.16111507267E+02 0.15898238646E+02 0.15602267160E+02 0.15222888506E+02 0.14773664770E+02
 0.14282252093E+02 0.13787761832E+02 0.13335894691E+02 0.12972533895E+02 0.12736856745E+02
 0.12655203855E+02 0.12736856739E+02 0.12972533883E+02 0.13335894677E+02 0.13787761819E+02
 0.14282252083E+02 0.14773664765E+02 0.15222888505E+02 0.15602267162E+02 0.15898238649E+02
 0.16111507270E+02 0.16254916091E+02 0.16347101279E+02 0.16398625906E+02 0.16415121715E+02
 0.16398625906E+02 0.16347101279E+02 0.16254916091E+02 0.16111507270E+02 0.15898238649E+02
 0.15602267162E+02 0.15222888505E+02 0.14773664765E+02 0.14282252083E+02 0.13787761819E+02
 0.13335894677E+02 0.12972533883E+02 0.12736856739E+02 0.12655203855E+02 0.12736856745E+02
 0.12972533895E+02 0.13335894691E+02 0.13787761832E+02 0.14282252093E+02 0.14773664770E+02
 0.14337129521E+02 0.14643774180E+02 0.14899237704E+02 0.15111615133E+02 0.15290131304E+02
 0.15439748910E+02 0.15563349154E+02 0.15660442173E+02 0.15726532072E+02 0.15753427325E+02
 0.15729014453E+02 0.15631686822E+02 0.15442410177E+02 0.15153933317E+02 0.14773664770E+02
 0.14324323236E+02 0.13842125076E+02 0.13372608120E+02 0.12964599242E+02 0.12663226076E+02
 0.12503137227E+02 0.12503137223E+02 0.12663226066E+02 0.12964599227E+02 0.13372608104E+02
 0.13842125062E+02 0.14324323226E+02 0.14773664766E+02 0.15153933317E+02 0.15442410180E+02
 0.15631686826E+02 0.15729014455E+02 0.15753427325E+02 0.15726532069E+02 0.15660442169E+02
 0.15563349150E+02 0.15439748908E+02 0.15290131305E+02 0.15111615136E+02 0.14899237710E+02
 0.14643774186E+02 0.14337129526E+02 0.13981158148E+02 0.13589220441E+02 0.13185373357E+02
 0.12801469708E+02 0.12472609292E+02 0.12231732626E+02 0.12104344523E+02 0.12104344524E+02
 0.12231732630E+02 0.12472609297E+02 0.12801469713E+02 0.13185373360E+02 0.13589220441E+02
 0.13981158145E+02 0.13338784447E+02 0.13622740991E+02 0.13886106118E+02 0.14131227392E+02
 0.14360507622E+02 0.14574767712E+02 0.14771658983E+02 0.14944874097E+02 0.15084268846E+02
 0.15176493891E+02 0.15199410419E+02 0.15128287795E+02 0.14948929428E+02 0.14661548642E+02
 0.14282252093E+02 0.13842125076E+02 0.13383910960E+02 0.12956634028E+02 0.12608885316E+02
 0.12381797166E+02 0.12302878169E+02 0.12381797158E+02 0.12608885302E+02 0.12956634010E+02
 0.13383910943E+02 0.13842125063E+02 0.14282252084E+02 0.14661548639E+02 0.14948929429E+02
 0.15128287798E+02 0.15199410422E+02 0.15176493893E+02 0.15084268846E+02 0.14944874096E+02
 0.14771658982E+02 0.14574767712E+02 0.14360507624E+02 0.14131227396E+02 0.13886106125E+02
 0.13622740999E+02 0.13338784455E+02 0.13031423039E+02 0.12703536226E+02 0.12366873991E+02
 0.12040893691E+02 0.11749929569E+02 0.11519263002E+02 0.11370866731E+02 0.11319644476E+02
 0.11370866730E+02 0.11519263000E+02 0.11749929565E+02 0.12040893686E+02 0.12366873985E+02
 0.12703536219E+02 0.13031423031E+02 0.12325401008E+02 0.12621485298E+02 0.12913940563E+02
 0.13203645986E+02 0.13490139945E+02 0.13770007798E+02 0.14035939499E+02 0.14276637607E+02
 0.14477624570E+02 0.14618489798E+02 0.14670735111E+02 0.14613381427E+02 0.14438939606E+02
 0.14155705177E+02 0.13787761832E+02 0.13372608120E+02 0.12956634028E+02 0.12588998439E+02
 0.12314761607E+02 0.12168333807E+02 0.12168333802E+02 0.12314761595E+02 0.12588998422E+02
 0.12956634009E+02 0.13372608104E+02 0.13787761820E+02 0.14155705170E+02 0.14438939603E+02
 0.14613381427E+02 0.14670735113E+02 0.14618489800E+02 0.14477624571E+02 0.14276637607E+02
 0.14035939500E+02 0.13770007800E+02 0.13490139947E+02 0.13203645990E+02 0.12913940568E+02
 0.12621485304E+02 0.12325401015E+02 0.12025436186E+02 0.11723647959E+02 0.11424430147E+02
 0.11137166131E+02 0.10876481936E+02 0.10659736786E+02 0.10503863016E+02 0.10422242798E+02
 0.10422242796E+02 0.10503863010E+02 0.10659736777E+02 0.10876481925E+02 0.11137166120E+02
 0.11424430137E+02 0.11723647950E+02 0.12025436178E+02 0.11356852274E+02 0.11679014812E+02
 0.12010485638E+02 0.12350260297E+02 0.12694660649E+02 0.13036246661E+02 0.13363483842E+02
 0.13661290800E+02 0.13911268325E+02 0.14085241091E+02 0.14156242714E+02 0.14109159915E+02
 0.13943843913E+02 0.13676019940E+02 0.13335894691E+02 0.12964599242E+02 0.12608885316E+02
 0.12314761607E+02 0.12120975850E+02 0.12053358902E+02 0.12120975842E+02 0.12314761593E+02
 0.12608885298E+02 0.12964599224E+02 0.13335894676E+02 0.13676019929E+02 0.13943843907E+02
 0.14109159913E+02 0.14156242713E+02 0.14085241092E+02 0.13911268326E+02 0.13661290800E+02
 0.13363483843E+02 0.13036246663E+02 0.12694660651E+02 0.12350260300E+02 0.12010485640E+02
 0.11679014815E+02 0.11356852277E+02 0.11043923637E+02 0.10740820805E+02 0.10450285663E+02
 0.10178055967E+02 0.99326408975E+01 0.97243981172E+01 0.95647799229E+01 0.94641730384E+01
 0.94297802145E+01 0.94641730323E+01 0.95647799122E+01 0.97243981040E+01 0.99326408844E+01
 0.10178055956E+02 0.10450285654E+02 0.10740820800E+02 0.11043923634E+02 0.10462313969E+02
 0.10818523498E+02 0.11193368117E+02 0.11583597335E+02 0.11982458873E+02 0.12379110611E+02
 0.12758846987E+02 0.13104151624E+02 0.13391270092E+02 0.13589718120E+02 0.13677440429E+02
 0.13645823044E+02 0.13501475372E+02 0.13265816998E+02 0.12972533895E+02 0.12663226076E+02
 0.12381797166E+02 0.12168333807E+02 0.12053358902E+02 0.12053358898E+02 0.12168333795E+02
 0.12381797150E+02 0.12663226059E+02 0.12972533879E+02 0.13265816985E+02 0.13501475363E+02
 0.13645823039E+02 0.13677440426E+02 0.13589718118E+02 0.13391270091E+02 0.13104151623E+02
 0.12758846987E+02 0.12379110612E+02 0.11982458874E+02 0.11583597336E+02 0.11193368117E+02
 0.10818523496E+02 0.10462313966E+02 0.10125696268E+02 0.98088581988E+01 0.95126964400E+01
 0.92398965856E+01 0.89953642728E+01 0.87859259684E+01 0.86194082541E+01 0.85033536180E+01
 0.84436959557E+01 0.84436959528E+01 0.85033536099E+01 0.86194082431E+01 0.87859259572E+01
 0.89953642639E+01 0.92398965805E+01 0.95126964388E+01 0.98088582005E+01 0.10125696271E+02
 0.96596538438E+01 0.10053098090E+02 0.10471403232E+02 0.10909150959E+02 0.11357014359E+02
 0.11801630958E+02 0.12226313122E+02 0.12611606418E+02 0.12929158990E+02 0.13151326908E+02
 0.13261640808E+02 0.13257478581E+02 0.13150610708E+02 0.12965679286E+02 0.12736856745E+02
 0.12503137227E+02 0.12302878169E+02 0.12168333802E+02 0.12120975842E+02 0.12168333795E+02
 0.12302878157E+02 0.12503137211E+02 0.12736856730E+02 0.12965679273E+02 0.13150610698E+02
 0.13257478574E+02 0.13261640803E+02 0.13151326905E+02 0.12929158988E+02 0.12611606417E+02
 0.12226313121E+02 0.11801630957E+02 0.11357014359E+02 0.10909150959E+02 0.10471403231E+02
 0.10053098087E+02 0.96596538384E+01 0.92934097932E+01 0.89549003670E+01 0.86442446205E+01
 0.83623202038E+01 0.81114648168E+01 0.78955852762E+01 0.77197155616E+01 0.75891991033E+01
 0.75087372609E+01 0.74815377005E+01 0.75087372570E+01 0.75891990969E+01 0.77197155550E+01
 0.78955852716E+01 0.81114648159E+01 0.83623202070E+01 0.86442446268E+01 0.89549003747E+01
 0.92934098004E+01 0.89570726591E+01 0.93876227391E+01 0.98470333303E+01 0.10328096080E+02
 0.10819613285E+02 0.11306671714E+02 0.11771728862E+02 0.12193053381E+02 0.12541275642E+02
 0.12793303905E+02 0.12937828348E+02 0.12976779639E+02 0.12924821354E+02 0.12807038994E+02
 0.12655203855E+02 0.12503137223E+02 0.12381797158E+02 0.12314761595E+02 0.12314761593E+02
 0.12381797150E+02 0.12503137211E+02 0.12655203843E+02 0.12807038982E+02 0.12924821344E+02
 0.12976779631E+02 0.12937828343E+02 0.12793303901E+02 0.12541275639E+02 0.12193053379E+02
 0.11771728860E+02 0.11306671712E+02 0.10819613284E+02 0.10328096080E+02 0.98470333294E+01
 0.93876227366E+01 0.89570726541E+01 0.85590781913E+01 0.81948380768E+01 0.78643135669E+01
 0.75674124877E+01 0.73048372846E+01 0.70784519814E+01 0.68911657995E+01 0.67464551449E+01
 0.66477124464E+01 0.65976089032E+01 0.65976089025E+01 0.66477124447E+01 0.67464551435E+01
 0.68911657998E+01 0.70784519847E+01 0.73048372912E+01 0.75674124968E+01 0.78643135772E+01
 0.81948380865E+01 0.85590781990E+01 0.83557338578E+01 0.88216994842E+01 0.93192946651E+01
 0.98400521870E+01 0.10371654453E+02 0.10898522522E+02 0.11402986586E+02 0.11861306671E+02
 0.12246164507E+02 0.12538761066E+02 0.12731683295E+02 0.12829378364E+02 0.12846873246E+02
 0.12807038991E+02 0.12736856739E+02 0.12663226066E+02 0.12608885302E+02 0.12588998422E+02
 0.12608885298E+02 0.12663226059E+02 0.12736856730E+02 0.12807038982E+02 0.12846873238E+02
 0.12829378357E+02 0.12731683290E+02 0.12538761063E+02 0.12246164504E+02 0.11861306670E+02
 0.11402986585E+02 0.10898522521E+02 0.10371654453E+02 0.98400521873E+01 0.93192946655E+01
 0.88216994838E+01 0.83557338557E+01 0.79261814529E+01 0.75349133744E+01 0.71819988883E+01
 0.68668528446E+01 0.65891544678E+01 0.63493722804E+01 0.61488610415E+01 0.59896162335E+01
 0.58738413459E+01 0.58034876123E+01 0.57798804961E+01 0.58034876133E+01 0.58738413484E+01
 0.59896162378E+01 0.61488610478E+01 0.63493722887E+01 0.65891544774E+01 0.68668528544E+01
 0.71819988970E+01 0.75349133812E+01 0.79261814573E+01 0.78529257330E+01 0.83526588955E+01
 0.88864614372E+01 0.94451510141E+01 0.10015940929E+02 0.10583239749E+02 0.11129462886E+02
 0.11630161469E+02 0.12060968215E+02 0.12406304207E+02 0.12660870581E+02 0.12829378362E+02
 0.12924821350E+02 0.12965679278E+02 0.12972533883E+02 0.12964599227E+02 0.12956634010E+02
 0.12956634009E+02 0.12964599224E+02 0.12972533879E+02 0.12965679273E+02 0.12924821344E+02
 0.12829378357E+02 0.12660870577E+02 0.12406304204E+02 0.12060968213E+02 0.11630161468E+02
 0.11129462886E+02 0.10583239749E+02 0.10015940930E+02 0.94451510155E+01 0.88864614390E+01
 0.83526588974E+01 0.78529257346E+01 0.73927614166E+01 0.69745362086E+01 0.65984542505E+01
 0.62636415110E+01 0.59690918567E+01 0.57142888119E+01 0.54994421807E+01 0.53253970661E+01
 0.51933486760E+01 0.51045090927E+01 0.50598309801E+01 0.50598309815E+01 0.51045090968E+01
 0.51933486823E+01 0.53253970739E+01 0.54994421890E+01 0.57142888199E+01 0.59690918635E+01
 0.62636415160E+01 0.65984542535E+01 0.69745362096E+01 0.73927614160E+01 0.74448679656E+01
 0.79778961131E+01 0.85477487844E+01 0.91449642341E+01 0.97567242782E+01 0.10367755598E+02
 0.10960612449E+02 0.11511260397E+02 0.11997782461E+02 0.12406304206E+02 0.12731683292E+02
 0.12976779634E+02 0.13150610700E+02 0.13265816987E+02 0.13335894677E+02 0.13372608104E+02
 0.13383910943E+02 0.13372608104E+02 0.13335894676E+02 0.13265816985E+02 0.13150610698E+02
 0.12976779631E+02 0.12731683290E+02 0.12406304204E+02 0.11997782460E+02 0.11511260397E+02
 0.10960612449E+02 0.10367755599E+02 0.97567242801E+01 0.91449642364E+01 0.85477487871E+01
 0.79778961162E+01 0.74448679693E+01 0.69545226402E+01 0.65094946477E+01 0.61100252376E+01
 0.57549845403E+01 0.54428226145E+01 0.51722537326E+01 0.49425894485E+01 0.47537529866E+01
 0.46060907264E+01 0.45001206185E+01 0.44363236886E+01 0.44150210989E+01 0.44363236922E+01
 0.45001206248E+01 0.46060907340E+01 0.47537529938E+01 0.49425894540E+01 0.51722537354E+01
 0.54428226146E+01 0.57549845380E+01 0.61100252338E+01 0.65094946434E+01 0.69545226359E+01
 0.71285743833E+01 0.76961079806E+01 0.83038355234E+01 0.89422630035E+01 0.95987084487E+01
 0.10258207951E+02 0.10903464196E+02 0.11511260398E+02 0.12060968214E+02 0.12538761064E+02
 0.12937828344E+02 0.13257478575E+02 0.13501475363E+02 0.13676019928E+02 0.13787761819E+02
 0.13842125062E+02 0.13842125063E+02 0.13787761820E+02 0.13676019929E+02 0.13501475363E+02
 0.13257478574E+02 0.12937828343E+02 0.12538761063E+02 0.12060968213E+02 0.11511260397E+02
 0.10903464197E+02 0.10258207952E+02 0.95987084508E+01 0.89422630058E+01 0.83038355257E+01
 0.76961079832E+01 0.71285743867E+01 0.66072038639E+01 0.61346978126E+01 0.57112130744E+01
 0.53353231119E+01 0.50049651046E+01 0.47181696000E+01 0.44734680368E+01 0.42699868449E+01
 0.41073262376E+01 0.39853583840E+01 0.39040573352E+01 0.38634122661E+01 0.38634122679E+01
 0.39040573400E+01 0.39853583901E+01 0.41073262430E+01 0.42699868477E+01 0.44734680361E+01
 0.47181695957E+01 0.50049650977E+01 0.53353231038E+01 0.57112130666E+01 0.61346978061E+01
 0.66072038591E+01 0.69025784645E+01 0.75074130726E+01 0.81563784310E+01 0.88399791113E+01
 0.95455729474E+01 0.10258207952E+02 0.10960612450E+02 0.11630161469E+02 0.12246164506E+02
 0.12793303902E+02 0.13261640804E+02 0.13645823038E+02 0.13943843905E+02 0.14155705168E+02
 0.14282252083E+02 0.14324323226E+02 0.14282252084E+02 0.14155705170E+02 0.13943843907E+02
 0.13645823039E+02 0.13261640803E+02 0.12793303901E+02 0.12246164504E+02 0.11630161468E+02
 0.10960612449E+02 0.10258207952E+02 0.95455729487E+01 0.88399791127E+01 0.81563784321E+01
 0.75074130732E+01 0.69025784653E+01 0.63478663150E+01 0.58459511166E+01 0.53968358377E+01
 0.49987629510E+01 0.46491557644E+01 0.43453855094E+01 0.40852439415E+01 0.38671078072E+01
 0.36898739560E+01 0.35527918279E+01 0.34553114832E+01 0.33970125596E+01 0.33776132938E+01
 0.33970125622E+01 0.34553114872E+01 0.35527918313E+01 0.36898739568E+01 0.38671078042E+01
 0.40852439347E+01 0.43453854998E+01 0.46491557539E+01 0.49987629415E+01 0.53968358306E+01
 0.58459511123E+01 0.63478663129E+01 0.67667058709E+01 0.74126927801E+01 0.81070040971E+01
 0.88399791126E+01 0.95987084511E+01 0.10367755601E+02 0.11129462889E+02 0.11861306673E+02
 0.12541275642E+02 0.13151326907E+02 0.13677440426E+02 0.14109159911E+02 0.14438939600E+02
 0.14661548636E+02 0.14773664765E+02 0.14773664766E+02 0.14661548639E+02 0.14438939603E+02
 0.14109159913E+02 0.13677440426E+02 0.13151326905E+02 0.12541275639E+02 0.11861306670E+02
 0.11129462886E+02 0.10367755599E+02 0.95987084508E+01 0.88399791127E+01 0.81070040966E+01
 0.74126927785E+01 0.67667058684E+01 0.61751333689E+01 0.56406572360E+01 0.51631496703E+01
 0.47405469227E+01 0.43697853612E+01 0.40476008824E+01 0.37710619317E+01 0.35378032383E+01
 0.33460186376E+01 0.31943273208E+01 0.30816328737E+01 0.30070536377E+01 0.29699399778E+01
 0.29699399786E+01 0.30070536396E+01 0.30816328753E+01 0.31943273203E+01 0.33460186339E+01
 0.35378032312E+01 0.37710619221E+01 0.40476008723E+01 0.43697853526E+01 0.47405469171E+01
 0.51631496682E+01 0.56406572369E+01 0.61751333713E+01 0.67213401555E+01 0.74126927812E+01
 0.81563784334E+01 0.89422630069E+01 0.97567242821E+01 0.10583239753E+02 0.11402986590E+02
 0.12193053384E+02 0.12929158992E+02 0.13589718120E+02 0.14156242713E+02 0.14613381425E+02
 0.14948929426E+02 0.15153933315E+02 0.15222888505E+02 0.15153933317E+02 0.14948929429E+02
 0.14613381427E+02 0.14156242713E+02 0.13589718118E+02 0.12929158988E+02 0.12193053379E+02
 0.11402986585E+02 0.10583239749E+02 0.97567242801E+01 0.89422630058E+01 0.81563784321E+01
 0.74126927785E+01 0.67213401509E+01 0.60887176167E+01 0.55176636817E+01 0.50080382223E+01
 0.45575730580E+01 0.41628037714E+01 0.38198954630E+01 0.35252302383E+01 0.32757095600E+01
 0.30688106662E+01 0.29024955050E+01 0.27750863160E+01 0.26851942686E+01 0.26317332097E+01
 0.26139953443E+01 0.26317332101E+01 0.26851942689E+01 0.27750863148E+01 0.29024955016E+01
 0.30688106603E+01 0.32757095526E+01 0.35252302308E+01 0.38198954573E+01 0.41628037690E+01
 0.45575730594E+01 0.50080382267E+01 0.55176636878E+01 0.60887176226E+01 0.67667058723E+01
 0.75074130751E+01 0.83038355266E+01 0.91449642378E+01 0.10015940933E+02 0.10898522526E+02