   2   2   1   0
  0.2001288E+02  0.3839590E-09  0.3839590E-09  0.3839590E-09  0.5000000E-15
  1.000000000000000E-004
  CAR 
 Si DFT Virtual Orbitals                 
     15.18745134     -7.51439911 2000      5.76578944      1.00000000
     -7.514  0.0000E+00  0.0000E+00
     -7.503  0.0000E+00  0.0000E+00
     -7.492  0.0000E+00  0.0000E+00
     -7.480  0.0000E+00  0.0000E+00
     -7.469  0.0000E+00  0.0000E+00
     -7.458  0.0000E+00  0.0000E+00
     -7.446  0.0000E+00  0.0000E+00
     -7.435  0.0000E+00  0.0000E+00
     -7.424  0.0000E+00  0.0000E+00
     -7.412  0.0000E+00  0.0000E+00
     -7.401  0.0000E+00  0.0000E+00
     -7.389  0.0000E+00  0.0000E+00
     -7.378  0.0000E+00  0.0000E+00
     -7.367  0.0000E+00  0.0000E+00
     -7.355  0.0000E+00  0.0000E+00
     -7.344  0.0000E+00  0.0000E+00
     -7.333  0.0000E+00  0.0000E+00
     -7.321  0.0000E+00  0.0000E+00
     -7.310  0.0000E+00  0.0000E+00
     -7.299  0.0000E+00  0.0000E+00
     -7.287  0.0000E+00  0.0000E+00
     -7.276  0.0000E+00  0.0000E+00
     -7.265  0.0000E+00  0.0000E+00
     -7.253  0.0000E+00  0.0000E+00
     -7.242  0.0000E+00  0.0000E+00
     -7.230  0.0000E+00  0.0000E+00
     -7.219  0.0000E+00  0.0000E+00
     -7.208  0.0000E+00  0.0000E+00
     -7.196  0.0000E+00  0.0000E+00
     -7.185  0.0000E+00  0.0000E+00
     -7.174  0.0000E+00  0.0000E+00
     -7.162  0.0000E+00  0.0000E+00
     -7.151  0.0000E+00  0.0000E+00
     -7.140  0.0000E+00  0.0000E+00
     -7.128  0.0000E+00  0.0000E+00
     -7.117  0.0000E+00  0.0000E+00
     -7.106  0.0000E+00  0.0000E+00
     -7.094  0.0000E+00  0.0000E+00
     -7.083  0.0000E+00  0.0000E+00
     -7.071  0.7821E-16  0.8882E-18
     -7.060  0.1564E-15  0.2665E-17
     -7.049  0.5475E-15  0.8882E-17
     -7.037  0.2190E-14  0.3375E-16
     -7.026  0.7586E-14  0.1199E-15
     -7.015  0.2612E-13  0.4166E-15
     -7.003  0.8720E-13  0.1407E-14
     -6.992  0.2838E-12  0.4630E-14
     -6.981  0.9007E-12  0.1486E-13
     -6.969  0.2786E-11  0.4650E-13
     -6.958  0.8397E-11  0.1419E-12
     -6.947  0.2467E-10  0.4220E-12
     -6.935  0.7061E-10  0.1224E-11
     -6.924  0.1970E-09  0.3461E-11
     -6.912  0.5358E-09  0.9546E-11
     -6.901  0.1420E-08  0.2567E-10
     -6.890  0.3667E-08  0.6732E-10
     -6.878  0.9231E-08  0.1721E-09
     -6.867  0.2264E-07  0.4293E-09
     -6.856  0.5414E-07  0.1044E-08
     -6.844  0.1261E-06  0.2477E-08
     -6.833  0.2865E-06  0.5730E-08
     -6.822  0.6340E-06  0.1293E-07
     -6.810  0.1367E-05  0.2846E-07
     -6.799  0.2875E-05  0.6110E-07
     -6.788  0.5889E-05  0.1280E-06
     -6.776  0.1176E-04  0.2615E-06
     -6.765  0.2288E-04  0.5214E-06
     -6.754  0.4339E-04  0.1014E-05
     -6.742  0.8020E-04  0.1925E-05
     -6.731  0.1445E-03  0.3565E-05
     -6.719  0.2536E-03  0.6445E-05
     -6.708  0.4339E-03  0.1137E-04
     -6.697  0.7234E-03  0.1959E-04
     -6.685  0.1176E-02  0.3294E-04
     -6.674  0.1862E-02  0.5408E-04
     -6.663  0.2874E-02  0.8672E-04
     -6.651  0.4323E-02  0.1358E-03
     -6.640  0.6338E-02  0.2078E-03
     -6.629  0.9056E-02  0.3106E-03
     -6.617  0.1261E-01  0.4538E-03
     -6.606  0.1711E-01  0.6482E-03
     -6.595  0.2263E-01  0.9052E-03
     -6.583  0.2918E-01  0.1237E-02
     -6.572  0.3665E-01  0.1653E-02
     -6.560  0.4488E-01  0.2162E-02
     -6.549  0.5355E-01  0.2771E-02
     -6.538  0.6227E-01  0.3478E-02
     -6.526  0.7058E-01  0.4279E-02
     -6.515  0.7795E-01  0.5165E-02
     -6.504  0.8392E-01  0.6118E-02
     -6.492  0.8804E-01  0.7117E-02
     -6.481  0.9002E-01  0.8140E-02
     -6.470  0.8970E-01  0.9159E-02
     -6.458  0.8712E-01  0.1015E-01
     -6.447  0.8246E-01  0.1108E-01
     -6.436  0.7606E-01  0.1195E-01
     -6.424  0.6838E-01  0.1272E-01
     -6.413  0.5991E-01  0.1341E-01
     -6.401  0.5116E-01  0.1399E-01
     -6.390  0.4257E-01  0.1447E-01
     -6.379  0.3453E-01  0.1486E-01
     -6.367  0.2729E-01  0.1517E-01
     -6.356  0.2103E-01  0.1541E-01
     -6.345  0.1579E-01  0.1559E-01
     -6.333  0.1155E-01  0.1572E-01
     -6.322  0.8238E-02  0.1581E-01
     -6.311  0.5728E-02  0.1588E-01
     -6.299  0.3884E-02  0.1592E-01
     -6.288  0.2575E-02  0.1595E-01
     -6.277  0.1678E-02  0.1597E-01
     -6.265  0.1096E-02  0.1598E-01
     -6.254  0.7556E-03  0.1599E-01
     -6.242  0.6158E-03  0.1600E-01
     -6.231  0.6685E-03  0.1601E-01
     -6.220  0.9469E-03  0.1602E-01
     -6.208  0.1536E-02  0.1604E-01
     -6.197  0.2585E-02  0.1607E-01
     -6.186  0.4333E-02  0.1611E-01
     -6.174  0.7126E-02  0.1620E-01
     -6.163  0.1144E-01  0.1633E-01
     -6.152  0.1793E-01  0.1653E-01
     -6.140  0.2737E-01  0.1684E-01
     -6.129  0.4073E-01  0.1730E-01
     -6.118  0.5907E-01  0.1797E-01
     -6.106  0.8350E-01  0.1892E-01
     -6.095  0.1150E+00  0.2023E-01
     -6.083  0.1545E+00  0.2198E-01
     -6.072  0.2021E+00  0.2428E-01
     -6.061  0.2579E+00  0.2721E-01
     -6.049  0.3206E+00  0.3085E-01
     -6.038  0.3885E+00  0.3526E-01
     -6.027  0.4591E+00  0.4047E-01
     -6.015  0.5289E+00  0.4648E-01
     -6.004  0.5943E+00  0.5323E-01
     -5.993  0.6514E+00  0.6063E-01
     -5.981  0.6970E+00  0.6854E-01
     -5.970  0.7285E+00  0.7682E-01
     -5.959  0.7447E+00  0.8527E-01
     -5.947  0.7455E+00  0.9374E-01
     -5.936  0.7327E+00  0.1021E+00
     -5.924  0.7092E+00  0.1101E+00
     -5.913  0.6787E+00  0.1178E+00
     -5.902  0.6455E+00  0.1252E+00
     -5.890  0.6140E+00  0.1321E+00
     -5.879  0.5876E+00  0.1388E+00
     -5.868  0.5687E+00  0.1453E+00
     -5.856  0.5584E+00  0.1516E+00
     -5.845  0.5561E+00  0.1579E+00
     -5.834  0.5602E+00  0.1643E+00
     -5.822  0.5678E+00  0.1707E+00
     -5.811  0.5754E+00  0.1773E+00
     -5.800  0.5796E+00  0.1838E+00
     -5.788  0.5773E+00  0.1904E+00
     -5.777  0.5662E+00  0.1968E+00
     -5.765  0.5452E+00  0.2030E+00
     -5.754  0.5142E+00  0.2089E+00
     -5.743  0.4742E+00  0.2142E+00
     -5.731  0.4273E+00  0.2191E+00
     -5.720  0.3757E+00  0.2234E+00
     -5.709  0.3224E+00  0.2270E+00
     -5.697  0.2697E+00  0.2301E+00
     -5.686  0.2201E+00  0.2326E+00
     -5.675  0.1750E+00  0.2346E+00
     -5.663  0.1357E+00  0.2361E+00
     -5.652  0.1026E+00  0.2373E+00
     -5.641  0.7555E-01  0.2381E+00
     -5.629  0.5424E-01  0.2388E+00
     -5.618  0.3795E-01  0.2392E+00
     -5.606  0.2588E-01  0.2395E+00
     -5.595  0.1720E-01  0.2397E+00
     -5.584  0.1114E-01  0.2398E+00
     -5.572  0.7035E-02  0.2399E+00
     -5.561  0.4328E-02  0.2399E+00
     -5.550  0.2596E-02  0.2400E+00
     -5.538  0.1517E-02  0.2400E+00
     -5.527  0.8640E-03  0.2400E+00
     -5.516  0.4799E-03  0.2400E+00
     -5.504  0.2602E-03  0.2400E+00
     -5.493  0.1385E-03  0.2400E+00
     -5.482  0.7422E-04  0.2400E+00
     -5.470  0.4389E-04  0.2400E+00
     -5.459  0.3584E-04  0.2400E+00
     -5.447  0.4724E-04  0.2400E+00
     -5.436  0.8347E-04  0.2400E+00
     -5.425  0.1601E-03  0.2400E+00
     -5.413  0.3076E-03  0.2400E+00
     -5.402  0.5797E-03  0.2400E+00
     -5.391  0.1066E-02  0.2400E+00
     -5.379  0.1912E-02  0.2400E+00
     -5.368  0.3342E-02  0.2401E+00
     -5.357  0.5693E-02  0.2402E+00
     -5.345  0.9450E-02  0.2403E+00
     -5.334  0.1529E-01  0.2404E+00
     -5.323  0.2411E-01  0.2407E+00
     -5.311  0.3705E-01  0.2411E+00
     -5.300  0.5549E-01  0.2418E+00
     -5.289  0.8099E-01  0.2427E+00
     -5.277  0.1152E+00  0.2440E+00
     -5.266  0.1597E+00  0.2458E+00
     -5.254  0.2158E+00  0.2482E+00
     -5.243  0.2842E+00  0.2515E+00
     -5.232  0.3647E+00  0.2556E+00
     -5.220  0.4562E+00  0.2608E+00
     -5.209  0.5560E+00  0.2671E+00
     -5.198  0.6606E+00  0.2746E+00
     -5.186  0.7648E+00  0.2833E+00
     -5.175  0.8630E+00  0.2931E+00
     -5.164  0.9491E+00  0.3039E+00
     -5.152  0.1017E+01  0.3154E+00
     -5.141  0.1062E+01  0.3275E+00
     -5.130  0.1082E+01  0.3398E+00
     -5.118  0.1073E+01  0.3520E+00
     -5.107  0.1038E+01  0.3637E+00
     -5.095  0.9777E+00  0.3749E+00
     -5.084  0.8979E+00  0.3850E+00
     -5.073  0.8037E+00  0.3942E+00
     -5.061  0.7011E+00  0.4021E+00
     -5.050  0.5960E+00  0.4089E+00
     -5.039  0.4938E+00  0.4145E+00
     -5.027  0.3988E+00  0.4190E+00
     -5.016  0.3138E+00  0.4226E+00
     -5.005  0.2407E+00  0.4253E+00
     -4.993  0.1799E+00  0.4274E+00
     -4.982  0.1311E+00  0.4289E+00
     -4.971  0.9309E-01  0.4299E+00
     -4.959  0.6447E-01  0.4307E+00
     -4.948  0.4358E-01  0.4312E+00
     -4.936  0.2886E-01  0.4315E+00
     -4.925  0.1891E-01  0.4317E+00
     -4.914  0.1261E-01  0.4318E+00
     -4.902  0.9160E-02  0.4319E+00
     -4.891  0.8105E-02  0.4320E+00
     -4.880  0.9369E-02  0.4321E+00
     -4.868  0.1328E-01  0.4323E+00
     -4.857  0.2062E-01  0.4325E+00
     -4.846  0.3269E-01  0.4329E+00
     -4.834  0.5134E-01  0.4335E+00
     -4.823  0.7903E-01  0.4344E+00
     -4.812  0.1188E+00  0.4357E+00
     -4.800  0.1744E+00  0.4377E+00
     -4.789  0.2495E+00  0.4405E+00
     -4.777  0.3483E+00  0.4445E+00
     -4.766  0.4741E+00  0.4499E+00
     -4.755  0.6294E+00  0.4570E+00
     -4.743  0.8150E+00  0.4663E+00
     -4.732  0.1029E+01  0.4780E+00
     -4.721  0.1268E+01  0.4924E+00
     -4.709  0.1525E+01  0.5097E+00
     -4.698  0.1788E+01  0.5300E+00
     -4.687  0.2047E+01  0.5533E+00
     -4.675  0.2286E+01  0.5792E+00
     -4.664  0.2491E+01  0.6075E+00
     -4.653  0.2649E+01  0.6376E+00
     -4.641  0.2751E+01  0.6688E+00
     -4.630  0.2788E+01  0.7005E+00
     -4.618  0.2758E+01  0.7318E+00
     -4.607  0.2665E+01  0.7621E+00
     -4.596  0.2514E+01  0.7906E+00
     -4.584  0.2315E+01  0.8169E+00
     -4.573  0.2083E+01  0.8406E+00
     -4.562  0.1830E+01  0.8614E+00
     -4.550  0.1570E+01  0.8792E+00
     -4.539  0.1316E+01  0.8941E+00
     -4.528  0.1078E+01  0.9064E+00
     -4.516  0.8623E+00  0.9162E+00
     -4.505  0.6739E+00  0.9238E+00
     -4.494  0.5144E+00  0.9297E+00
     -4.482  0.3837E+00  0.9340E+00
     -4.471  0.2796E+00  0.9372E+00
     -4.459  0.1990E+00  0.9395E+00
     -4.448  0.1384E+00  0.9410E+00
     -4.437  0.9402E-01  0.9421E+00
     -4.425  0.6239E-01  0.9428E+00
     -4.414  0.4044E-01  0.9433E+00
     -4.403  0.2560E-01  0.9436E+00
     -4.391  0.1583E-01  0.9437E+00
     -4.380  0.9556E-02  0.9439E+00
     -4.369  0.5634E-02  0.9439E+00
     -4.357  0.3243E-02  0.9440E+00
     -4.346  0.1823E-02  0.9440E+00
     -4.335  0.1000E-02  0.9440E+00
     -4.323  0.5356E-03  0.9440E+00
     -4.312  0.2800E-03  0.9440E+00
     -4.300  0.1428E-03  0.9440E+00
     -4.289  0.7111E-04  0.9440E+00
     -4.278  0.3455E-04  0.9440E+00
     -4.266  0.1637E-04  0.9440E+00
     -4.255  0.7572E-05  0.9440E+00
     -4.244  0.3416E-05  0.9440E+00
     -4.232  0.1504E-05  0.9440E+00
     -4.221  0.6465E-06  0.9440E+00
     -4.210  0.2736E-06  0.9440E+00
     -4.198  0.1198E-06  0.9440E+00
     -4.187  0.6942E-07  0.9440E+00
     -4.176  0.8372E-07  0.9440E+00
     -4.164  0.1763E-06  0.9440E+00
     -4.153  0.4241E-06  0.9440E+00
     -4.141  0.1022E-05  0.9440E+00
     -4.130  0.2408E-05  0.9440E+00
     -4.119  0.5537E-05  0.9440E+00
     -4.107  0.1241E-04  0.9440E+00
     -4.096  0.2711E-04  0.9440E+00
     -4.085  0.5771E-04  0.9440E+00
     -4.073  0.1198E-03  0.9440E+00
     -4.062  0.2422E-03  0.9440E+00
     -4.051  0.4775E-03  0.9440E+00
     -4.039  0.9176E-03  0.9440E+00
     -4.028  0.1718E-02  0.9440E+00
     -4.017  0.3137E-02  0.9441E+00
     -4.005  0.5580E-02  0.9441E+00
     -3.994  0.9677E-02  0.9442E+00
     -3.982  0.1635E-01  0.9444E+00
     -3.971  0.2694E-01  0.9447E+00
     -3.960  0.4326E-01  0.9452E+00
     -3.948  0.6769E-01  0.9460E+00
     -3.937  0.1032E+00  0.9472E+00
     -3.926  0.1535E+00  0.9489E+00
     -3.914  0.2224E+00  0.9514E+00
     -3.903  0.3141E+00  0.9550E+00
     -3.892  0.4323E+00  0.9599E+00
     -3.880  0.5800E+00  0.9665E+00
     -3.869  0.7585E+00  0.9751E+00
     -3.858  0.9666E+00  0.9861E+00
     -3.846  0.1201E+01  0.9997E+00
     -3.835  0.1454E+01  0.1016E+01
     -3.824  0.1715E+01  0.1036E+01
     -3.812  0.1973E+01  0.1058E+01
     -3.801  0.2212E+01  0.1083E+01
     -3.789  0.2416E+01  0.1111E+01
     -3.778  0.2573E+01  0.1140E+01
     -3.767  0.2671E+01  0.1170E+01
     -3.755  0.2702E+01  0.1201E+01
     -3.744  0.2664E+01  0.1231E+01
     -3.733  0.2560E+01  0.1260E+01
     -3.721  0.2397E+01  0.1287E+01
     -3.710  0.2188E+01  0.1312E+01
     -3.699  0.1947E+01  0.1334E+01
     -3.687  0.1688E+01  0.1354E+01
     -3.676  0.1427E+01  0.1370E+01
     -3.665  0.1176E+01  0.1383E+01
     -3.653  0.9438E+00  0.1394E+01
     -3.642  0.7386E+00  0.1402E+01
     -3.630  0.5634E+00  0.1409E+01
     -3.619  0.4191E+00  0.1413E+01
     -3.608  0.3040E+00  0.1417E+01
     -3.596  0.2155E+00  0.1419E+01
     -3.585  0.1498E+00  0.1421E+01
     -3.574  0.1031E+00  0.1422E+01
     -3.562  0.7194E-01  0.1423E+01
     -3.551  0.5356E-01  0.1424E+01
     -3.540  0.4603E-01  0.1424E+01
     -3.528  0.4844E-01  0.1425E+01
     -3.517  0.6088E-01  0.1425E+01
     -3.506  0.8445E-01  0.1426E+01
     -3.494  0.1211E+00  0.1428E+01
     -3.483  0.1733E+00  0.1430E+01
     -3.471  0.2441E+00  0.1432E+01
     -3.460  0.3363E+00  0.1436E+01
     -3.449  0.4521E+00  0.1441E+01
     -3.437  0.5927E+00  0.1448E+01
     -3.426  0.7575E+00  0.1457E+01
     -3.415  0.9435E+00  0.1467E+01
     -3.403  0.1145E+01  0.1480E+01
     -3.392  0.1355E+01  0.1496E+01
     -3.381  0.1562E+01  0.1514E+01
     -3.369  0.1756E+01  0.1534E+01
     -3.358  0.1923E+01  0.1555E+01
     -3.347  0.2052E+01  0.1579E+01
     -3.335  0.2135E+01  0.1603E+01
     -3.324  0.2164E+01  0.1628E+01
     -3.312  0.2138E+01  0.1652E+01
     -3.301  0.2059E+01  0.1675E+01
     -3.290  0.1932E+01  0.1697E+01
     -3.278  0.1767E+01  0.1717E+01
     -3.267  0.1575E+01  0.1735E+01
     -3.256  0.1368E+01  0.1751E+01
     -3.244  0.1159E+01  0.1764E+01
     -3.233  0.9560E+00  0.1775E+01
     -3.222  0.7687E+00  0.1783E+01
     -3.210  0.6025E+00  0.1790E+01
     -3.199  0.4602E+00  0.1795E+01
     -3.188  0.3426E+00  0.1799E+01
     -3.176  0.2485E+00  0.1802E+01
     -3.165  0.1757E+00  0.1804E+01
     -3.153  0.1211E+00  0.1806E+01
     -3.142  0.8132E-01  0.1806E+01
     -3.131  0.5322E-01  0.1807E+01
     -3.119  0.3395E-01  0.1807E+01
     -3.108  0.2111E-01  0.1808E+01
     -3.097  0.1279E-01  0.1808E+01
     -3.085  0.7550E-02  0.1808E+01
     -3.074  0.4345E-02  0.1808E+01
     -3.063  0.2437E-02  0.1808E+01
     -3.051  0.1332E-02  0.1808E+01
     -3.040  0.7095E-03  0.1808E+01
     -3.029  0.3684E-03  0.1808E+01
     -3.017  0.1864E-03  0.1808E+01
     -3.006  0.9191E-04  0.1808E+01
     -2.994  0.4418E-04  0.1808E+01
     -2.983  0.2070E-04  0.1808E+01
     -2.972  0.9481E-05  0.1808E+01
     -2.960  0.4297E-05  0.1808E+01
     -2.949  0.2059E-05  0.1808E+01
     -2.938  0.1339E-05  0.1808E+01
     -2.926  0.1649E-05  0.1808E+01
     -2.915  0.3163E-05  0.1808E+01
     -2.904  0.6796E-05  0.1808E+01
     -2.892  0.1463E-04  0.1808E+01
     -2.881  0.3084E-04  0.1808E+01
     -2.870  0.6341E-04  0.1808E+01
     -2.858  0.1271E-03  0.1808E+01
     -2.847  0.2483E-03  0.1808E+01
     -2.835  0.4728E-03  0.1808E+01
     -2.824  0.8773E-03  0.1808E+01
     -2.813  0.1586E-02  0.1808E+01
     -2.801  0.2796E-02  0.1808E+01
     -2.790  0.4803E-02  0.1808E+01
     -2.779  0.8040E-02  0.1808E+01
     -2.767  0.1312E-01  0.1808E+01
     -2.756  0.2086E-01  0.1809E+01
     -2.745  0.3232E-01  0.1809E+01
     -2.733  0.4881E-01  0.1810E+01
     -2.722  0.7184E-01  0.1810E+01
     -2.711  0.1031E+00  0.1812E+01
     -2.699  0.1441E+00  0.1813E+01
     -2.688  0.1963E+00  0.1815E+01
     -2.676  0.2606E+00  0.1818E+01
     -2.665  0.3373E+00  0.1822E+01
     -2.654  0.4254E+00  0.1827E+01
     -2.642  0.5229E+00  0.1833E+01
     -2.631  0.6264E+00  0.1840E+01
     -2.620  0.7314E+00  0.1848E+01
     -2.608  0.8322E+00  0.1858E+01
     -2.597  0.9228E+00  0.1868E+01
     -2.586  0.9974E+00  0.1880E+01
     -2.574  0.1051E+01  0.1892E+01
     -2.563  0.1078E+01  0.1904E+01
     -2.552  0.1079E+01  0.1916E+01
     -2.540  0.1052E+01  0.1928E+01
     -2.529  0.9995E+00  0.1939E+01
     -2.517  0.9257E+00  0.1950E+01
     -2.506  0.8355E+00  0.1959E+01
     -2.495  0.7349E+00  0.1968E+01
     -2.483  0.6300E+00  0.1975E+01
     -2.472  0.5264E+00  0.1981E+01
     -2.461  0.4286E+00  0.1986E+01
     -2.449  0.3401E+00  0.1990E+01
     -2.438  0.2631E+00  0.1993E+01
     -2.427  0.1983E+00  0.1995E+01
     -2.415  0.1457E+00  0.1996E+01
     -2.404  0.1043E+00  0.1998E+01
     -2.393  0.7276E-01  0.1998E+01
     -2.381  0.4948E-01  0.1999E+01
     -2.370  0.3279E-01  0.1999E+01
     -2.359  0.2118E-01  0.2000E+01
     -2.347  0.1333E-01  0.2000E+01
     -2.336  0.8179E-02  0.2000E+01
     -2.324  0.4891E-02  0.2000E+01
     -2.313  0.2852E-02  0.2000E+01
     -2.302  0.1624E-02  0.2000E+01
     -2.290  0.9075E-03  0.2000E+01
     -2.279  0.5085E-03  0.2000E+01
     -2.268  0.3066E-03  0.2000E+01
     -2.256  0.2363E-03  0.2000E+01
     -2.245  0.2739E-03  0.2000E+01
     -2.234  0.4320E-03  0.2000E+01
     -2.222  0.7630E-03  0.2000E+01
     -2.211  0.1369E-02  0.2000E+01
     -2.200  0.2420E-02  0.2000E+01
     -2.188  0.4180E-02  0.2000E+01
     -2.177  0.7043E-02  0.2000E+01
     -2.165  0.1157E-01  0.2000E+01
     -2.154  0.1852E-01  0.2001E+01
     -2.143  0.2889E-01  0.2001E+01
     -2.131  0.4392E-01  0.2001E+01
     -2.120  0.6509E-01  0.2002E+01
     -2.109  0.9400E-01  0.2003E+01
     -2.097  0.1323E+00  0.2005E+01
     -2.086  0.1815E+00  0.2007E+01
     -2.075  0.2426E+00  0.2009E+01
     -2.063  0.3161E+00  0.2013E+01
     -2.052  0.4013E+00  0.2018E+01
     -2.041  0.4967E+00  0.2023E+01
     -2.029  0.5990E+00  0.2030E+01
     -2.018  0.7041E+00  0.2038E+01
     -2.006  0.8065E+00  0.2047E+01
     -1.995  0.9004E+00  0.2057E+01
     -1.984  0.9797E+00  0.2069E+01
     -1.972  0.1039E+01  0.2080E+01
     -1.961  0.1074E+01  0.2093E+01
     -1.950  0.1081E+01  0.2105E+01
     -1.938  0.1062E+01  0.2117E+01
     -1.927  0.1016E+01  0.2128E+01
     -1.916  0.9468E+00  0.2139E+01
     -1.904  0.8603E+00  0.2149E+01
     -1.893  0.7619E+00  0.2158E+01
     -1.882  0.6576E+00  0.2165E+01
     -1.870  0.5531E+00  0.2171E+01
     -1.859  0.4534E+00  0.2177E+01
     -1.847  0.3623E+00  0.2181E+01
     -1.836  0.2821E+00  0.2184E+01
     -1.825  0.2140E+00  0.2186E+01
     -1.813  0.1583E+00  0.2188E+01
     -1.802  0.1141E+00  0.2189E+01
     -1.791  0.8015E-01  0.2190E+01
     -1.779  0.5487E-01  0.2191E+01
     -1.768  0.3661E-01  0.2191E+01
     -1.757  0.2381E-01  0.2192E+01
     -1.745  0.1509E-01  0.2192E+01
     -1.734  0.9318E-02  0.2192E+01
     -1.723  0.5609E-02  0.2192E+01
     -1.711  0.3290E-02  0.2192E+01
     -1.700  0.1881E-02  0.2192E+01
     -1.688  0.1048E-02  0.2192E+01
     -1.677  0.5692E-03  0.2192E+01
     -1.666  0.3013E-03  0.2192E+01
     -1.654  0.1554E-03  0.2192E+01
     -1.643  0.7814E-04  0.2192E+01
     -1.632  0.3834E-04  0.2192E+01
     -1.620  0.1845E-04  0.2192E+01
     -1.609  0.8945E-05  0.2192E+01
     -1.598  0.4921E-05  0.2192E+01
     -1.586  0.4200E-05  0.2192E+01
     -1.575  0.6437E-05  0.2192E+01
     -1.564  0.1300E-04  0.2192E+01
     -1.552  0.2767E-04  0.2192E+01
     -1.541  0.5830E-04  0.2192E+01
     -1.529  0.1201E-03  0.2192E+01
     -1.518  0.2411E-03  0.2192E+01
     -1.507  0.4720E-03  0.2192E+01
     -1.495  0.9005E-03  0.2192E+01
     -1.484  0.1674E-02  0.2192E+01
     -1.473  0.3034E-02  0.2192E+01
     -1.461  0.5358E-02  0.2192E+01
     -1.450  0.9222E-02  0.2192E+01
     -1.439  0.1547E-01  0.2192E+01
     -1.427  0.2529E-01  0.2193E+01
     -1.416  0.4030E-01  0.2193E+01
     -1.405  0.6258E-01  0.2194E+01
     -1.393  0.9472E-01  0.2195E+01
     -1.382  0.1397E+00  0.2197E+01
     -1.370  0.2009E+00  0.2199E+01
     -1.359  0.2817E+00  0.2202E+01
     -1.348  0.3849E+00  0.2206E+01
     -1.336  0.5127E+00  0.2212E+01
     -1.325  0.6659E+00  0.2220E+01
     -1.314  0.8435E+00  0.2229E+01
     -1.302  0.1042E+01  0.2241E+01
     -1.291  0.1256E+01  0.2255E+01
     -1.280  0.1478E+01  0.2272E+01
     -1.268  0.1699E+01  0.2292E+01
     -1.257  0.1909E+01  0.2313E+01
     -1.246  0.2099E+01  0.2337E+01
     -1.234  0.2261E+01  0.2363E+01
     -1.223  0.2391E+01  0.2390E+01
     -1.211  0.2487E+01  0.2418E+01
     -1.200  0.2552E+01  0.2447E+01
     -1.189  0.2589E+01  0.2477E+01
     -1.177  0.2608E+01  0.2506E+01
     -1.166  0.2614E+01  0.2536E+01
     -1.155  0.2615E+01  0.2566E+01
     -1.143  0.2615E+01  0.2595E+01
     -1.132  0.2615E+01  0.2625E+01
     -1.121  0.2613E+01  0.2655E+01
     -1.109  0.2604E+01  0.2684E+01
     -1.098  0.2581E+01  0.2713E+01
     -1.087  0.2536E+01  0.2742E+01
     -1.075  0.2463E+01  0.2770E+01
     -1.064  0.2357E+01  0.2797E+01
     -1.052  0.2217E+01  0.2822E+01
     -1.041  0.2047E+01  0.2845E+01
     -1.030  0.1851E+01  0.2866E+01
     -1.018  0.1638E+01  0.2885E+01
     -1.007  0.1418E+01  0.2901E+01
     -0.996  0.1201E+01  0.2915E+01
     -0.984  0.9963E+00  0.2926E+01
     -0.973  0.8114E+00  0.2935E+01
     -0.962  0.6524E+00  0.2943E+01
     -0.950  0.5228E+00  0.2949E+01
     -0.939  0.4243E+00  0.2954E+01
     -0.928  0.3568E+00  0.2958E+01
     -0.916  0.3192E+00  0.2961E+01
     -0.905  0.3090E+00  0.2965E+01
     -0.893  0.3233E+00  0.2968E+01
     -0.882  0.3588E+00  0.2972E+01
     -0.871  0.4116E+00  0.2977E+01
     -0.859  0.4777E+00  0.2983E+01
     -0.848  0.5529E+00  0.2989E+01
     -0.837  0.6327E+00  0.2996E+01
     -0.825  0.7128E+00  0.3004E+01
     -0.814  0.7891E+00  0.3013E+01
     -0.803  0.8577E+00  0.3023E+01
     -0.791  0.9158E+00  0.3033E+01
     -0.780  0.9610E+00  0.3044E+01
     -0.769  0.9919E+00  0.3055E+01
     -0.757  0.1008E+01  0.3067E+01
     -0.746  0.1009E+01  0.3078E+01
     -0.735  0.9954E+00  0.3090E+01
     -0.723  0.9685E+00  0.3101E+01
     -0.712  0.9294E+00  0.3111E+01
     -0.700  0.8795E+00  0.3121E+01
     -0.689  0.8204E+00  0.3130E+01
     -0.678  0.7539E+00  0.3139E+01
     -0.666  0.6818E+00  0.3147E+01
     -0.655  0.6063E+00  0.3154E+01
     -0.644  0.5297E+00  0.3160E+01
     -0.632  0.4542E+00  0.3165E+01
     -0.621  0.3818E+00  0.3169E+01
     -0.610  0.3144E+00  0.3173E+01
     -0.598  0.2534E+00  0.3176E+01
     -0.587  0.1998E+00  0.3178E+01
     -0.576  0.1540E+00  0.3180E+01
     -0.564  0.1160E+00  0.3181E+01
     -0.553  0.8527E-01  0.3182E+01
     -0.541  0.6121E-01  0.3183E+01
     -0.530  0.4288E-01  0.3183E+01
     -0.519  0.2931E-01  0.3183E+01
     -0.507  0.1954E-01  0.3184E+01
     -0.496  0.1271E-01  0.3184E+01
     -0.485  0.8059E-02  0.3184E+01
     -0.473  0.4983E-02  0.3184E+01
     -0.462  0.3004E-02  0.3184E+01
     -0.451  0.1765E-02  0.3184E+01
     -0.439  0.1011E-02  0.3184E+01
     -0.428  0.5648E-03  0.3184E+01
     -0.417  0.3075E-03  0.3184E+01
     -0.405  0.1631E-03  0.3184E+01
     -0.394  0.8437E-04  0.3184E+01
     -0.382  0.4253E-04  0.3184E+01
     -0.371  0.2089E-04  0.3184E+01
     -0.360  0.1000E-04  0.3184E+01
     -0.348  0.4669E-05  0.3184E+01
     -0.337  0.2124E-05  0.3184E+01
     -0.326  0.9414E-06  0.3184E+01
     -0.314  0.4068E-06  0.3184E+01
     -0.303  0.1715E-06  0.3184E+01
     -0.292  0.7084E-07  0.3184E+01
     -0.280  0.2972E-07  0.3184E+01
     -0.269  0.1545E-07  0.3184E+01
     -0.258  0.1638E-07  0.3184E+01
     -0.246  0.3397E-07  0.3184E+01
     -0.235  0.8443E-07  0.3184E+01
     -0.223  0.2116E-06  0.3184E+01
     -0.212  0.5194E-06  0.3184E+01
     -0.201  0.1243E-05  0.3184E+01
     -0.189  0.2901E-05  0.3184E+01
     -0.178  0.6596E-05  0.3184E+01
     -0.167  0.1462E-04  0.3184E+01
     -0.155  0.3157E-04  0.3184E+01
     -0.144  0.6645E-04  0.3184E+01
     -0.133  0.1363E-03  0.3184E+01
     -0.121  0.2725E-03  0.3184E+01
     -0.110  0.5310E-03  0.3184E+01
     -0.099  0.1008E-02  0.3184E+01
     -0.087  0.1866E-02  0.3184E+01
     -0.076  0.3366E-02  0.3184E+01
     -0.064  0.5917E-02  0.3184E+01
     -0.053  0.1014E-01  0.3184E+01
     -0.042  0.1692E-01  0.3184E+01
     -0.030  0.2754E-01  0.3185E+01
     -0.019  0.4367E-01  0.3185E+01
     -0.008  0.6750E-01  0.3186E+01
      0.004  0.1017E+00  0.3187E+01
      0.015  0.1492E+00  0.3189E+01
      0.026  0.2135E+00  0.3191E+01
      0.038  0.2977E+00  0.3195E+01
      0.049  0.4046E+00  0.3199E+01
      0.060  0.5358E+00  0.3205E+01
      0.072  0.6916E+00  0.3213E+01
      0.083  0.8700E+00  0.3223E+01
      0.095  0.1067E+01  0.3235E+01
      0.106  0.1274E+01  0.3250E+01
      0.117  0.1484E+01  0.3267E+01
      0.129  0.1684E+01  0.3286E+01
      0.140  0.1863E+01  0.3307E+01
      0.151  0.2008E+01  0.3330E+01
      0.163  0.2109E+01  0.3354E+01
      0.174  0.2159E+01  0.3378E+01
      0.185  0.2155E+01  0.3403E+01
      0.197  0.2095E+01  0.3426E+01
      0.208  0.1986E+01  0.3449E+01
      0.219  0.1834E+01  0.3470E+01
      0.231  0.1651E+01  0.3488E+01
      0.242  0.1449E+01  0.3505E+01
      0.254  0.1239E+01  0.3519E+01
      0.265  0.1032E+01  0.3531E+01
      0.276  0.8382E+00  0.3540E+01
      0.288  0.6634E+00  0.3548E+01
      0.299  0.5118E+00  0.3554E+01
      0.310  0.3847E+00  0.3558E+01
      0.322  0.2819E+00  0.3561E+01
      0.333  0.2013E+00  0.3563E+01
      0.344  0.1401E+00  0.3565E+01
      0.356  0.9500E-01  0.3566E+01
      0.367  0.6279E-01  0.3567E+01
      0.378  0.4045E-01  0.3567E+01
      0.390  0.2540E-01  0.3568E+01
      0.401  0.1554E-01  0.3568E+01
      0.413  0.9266E-02  0.3568E+01
      0.424  0.5385E-02  0.3568E+01
      0.435  0.3050E-02  0.3568E+01
      0.447  0.1684E-02  0.3568E+01
      0.458  0.9058E-03  0.3568E+01
      0.469  0.4749E-03  0.3568E+01
      0.481  0.2427E-03  0.3568E+01
      0.492  0.1209E-03  0.3568E+01
      0.503  0.5866E-04  0.3568E+01
      0.515  0.2775E-04  0.3568E+01
      0.526  0.1279E-04  0.3568E+01
      0.537  0.5747E-05  0.3568E+01
      0.549  0.2517E-05  0.3568E+01
      0.560  0.1075E-05  0.3568E+01
      0.572  0.4507E-06  0.3568E+01
      0.583  0.1921E-06  0.3568E+01
      0.594  0.1005E-06  0.3568E+01
      0.606  0.1013E-06  0.3568E+01
      0.617  0.1934E-06  0.3568E+01
      0.628  0.4465E-06  0.3568E+01
      0.640  0.1045E-05  0.3568E+01
      0.651  0.2397E-05  0.3568E+01
      0.662  0.5366E-05  0.3568E+01
      0.674  0.1171E-04  0.3568E+01
      0.685  0.2489E-04  0.3568E+01
      0.696  0.5158E-04  0.3568E+01
      0.708  0.1042E-03  0.3568E+01
      0.719  0.2050E-03  0.3568E+01
      0.730  0.3933E-03  0.3568E+01
      0.742  0.7352E-03  0.3568E+01
      0.753  0.1339E-02  0.3568E+01
      0.765  0.2378E-02  0.3568E+01
      0.776  0.4116E-02  0.3568E+01
      0.787  0.6942E-02  0.3568E+01
      0.799  0.1141E-01  0.3568E+01
      0.810  0.1828E-01  0.3569E+01
      0.821  0.2854E-01  0.3569E+01
      0.833  0.4342E-01  0.3569E+01
      0.844  0.6439E-01  0.3570E+01
      0.855  0.9306E-01  0.3571E+01
      0.867  0.1311E+00  0.3573E+01
      0.878  0.1799E+00  0.3575E+01
      0.889  0.2407E+00  0.3577E+01
      0.901  0.3138E+00  0.3581E+01
      0.912  0.3988E+00  0.3585E+01
      0.924  0.4938E+00  0.3591E+01
      0.935  0.5960E+00  0.3598E+01
      0.946  0.7011E+00  0.3606E+01
      0.958  0.8037E+00  0.3615E+01
      0.969  0.8979E+00  0.3625E+01
      0.980  0.9777E+00  0.3636E+01
      0.992  0.1038E+01  0.3648E+01
      1.003  0.1073E+01  0.3660E+01
      1.014  0.1082E+01  0.3673E+01
      1.026  0.1062E+01  0.3685E+01
      1.037  0.1017E+01  0.3696E+01
      1.048  0.9490E+00  0.3707E+01
      1.060  0.8630E+00  0.3717E+01
      1.071  0.7648E+00  0.3725E+01
      1.083  0.6606E+00  0.3733E+01
      1.094  0.5561E+00  0.3739E+01
      1.105  0.4562E+00  0.3744E+01
      1.117  0.3648E+00  0.3749E+01
      1.128  0.2844E+00  0.3752E+01
      1.139  0.2162E+00  0.3754E+01
      1.151  0.1605E+00  0.3756E+01
      1.162  0.1167E+00  0.3757E+01
      1.173  0.8360E-01  0.3758E+01
      1.185  0.6001E-01  0.3759E+01
      1.196  0.4468E-01  0.3759E+01
      1.207  0.3667E-01  0.3760E+01
      1.219  0.3545E-01  0.3760E+01
      1.230  0.4102E-01  0.3761E+01
      1.242  0.5394E-01  0.3761E+01
      1.253  0.7530E-01  0.3762E+01
      1.264  0.1067E+00  0.3763E+01
      1.276  0.1502E+00  0.3765E+01
      1.287  0.2079E+00  0.3768E+01
      1.298  0.2821E+00  0.3771E+01
      1.310  0.3748E+00  0.3775E+01
      1.321  0.4875E+00  0.3781E+01
      1.332  0.6212E+00  0.3788E+01
      1.344  0.7758E+00  0.3796E+01
      1.355  0.9500E+00  0.3807E+01
      1.366  0.1142E+01  0.3820E+01
      1.378  0.1347E+01  0.3835E+01
      1.389  0.1562E+01  0.3853E+01
      1.401  0.1781E+01  0.3873E+01
      1.412  0.1996E+01  0.3896E+01
      1.423  0.2201E+01  0.3921E+01
      1.435  0.2387E+01  0.3948E+01
      1.446  0.2547E+01  0.3977E+01
      1.457  0.2671E+01  0.4007E+01
      1.469  0.2754E+01  0.4039E+01
      1.480  0.2789E+01  0.4070E+01
      1.491  0.2773E+01  0.4102E+01
      1.503  0.2705E+01  0.4133E+01
      1.514  0.2586E+01  0.4162E+01
      1.525  0.2423E+01  0.4190E+01
      1.537  0.2223E+01  0.4215E+01
      1.548  0.1995E+01  0.4237E+01
      1.560  0.1752E+01  0.4257E+01
      1.571  0.1503E+01  0.4274E+01
      1.582  0.1260E+01  0.4289E+01
      1.594  0.1032E+01  0.4300E+01
      1.605  0.8248E+00  0.4310E+01
      1.616  0.6436E+00  0.4317E+01
      1.628  0.4901E+00  0.4323E+01
      1.639  0.3641E+00  0.4327E+01
      1.650  0.2638E+00  0.4330E+01
      1.662  0.1864E+00  0.4332E+01
      1.673  0.1285E+00  0.4333E+01
      1.684  0.8635E-01  0.4334E+01
      1.696  0.5658E-01  0.4335E+01
      1.707  0.3615E-01  0.4335E+01
      1.719  0.2254E-01  0.4336E+01
      1.730  0.1373E-01  0.4336E+01
      1.741  0.8220E-02  0.4336E+01
      1.753  0.4935E-02  0.4336E+01
      1.764  0.3151E-02  0.4336E+01
      1.775  0.2442E-02  0.4336E+01
      1.787  0.2629E-02  0.4336E+01
      1.798  0.3758E-02  0.4336E+01
      1.809  0.6107E-02  0.4336E+01
      1.821  0.1022E-01  0.4336E+01
      1.832  0.1694E-01  0.4336E+01
      1.843  0.2751E-01  0.4337E+01
      1.855  0.4361E-01  0.4337E+01