    2    2    1    1
  0.2001288E+02  0.3839590E-09  0.3839590E-09  0.3839590E-09  0.5000000E-15
  1.000000000000000E-004
  CAR 
 Si DFT Virtual Orbitals                 
      8     10      8
 
  0.0000000E+00  0.0000000E+00  0.0000000E+00  0.8000000E-02
      1         -6.482497   1.000000
      2          5.484280   0.999966
      3          5.484280   0.999966
      4          5.484280   0.999966
      5          8.041689   0.000000
      6          8.041689   0.000000
      7          8.041689   0.000000
      8          8.852932   0.000000
 
  0.2000000E+00  0.5388760E-17 -0.7440118E-15  0.6400000E-01
      1         -5.964852   1.000000
      2          2.473000   1.000000
      3          4.903548   1.000000
      4          4.903548   1.000000
      5          7.702071   0.000000
      6          8.843066   0.000000
      7          8.843066   0.000000
      8         11.538901   0.000000
 
  0.4000000E+00 -0.4626824E-17 -0.5028386E-14  0.6400000E-01
      1         -4.601486   1.000000
      2         -0.792246   1.000000
      3          4.355507   1.000000
      4          4.355507   1.000000
      5          7.102020   0.000000
      6          8.893835   0.000000
      7          8.893835   0.000000
      8         13.322692   0.000000
 
  0.2000000E+00  0.2000000E+00  0.1676117E-16  0.4800000E-01
      1         -5.786711   1.000000
      2          2.860712   1.000000
      3          3.993016   1.000000
      4          3.993016   1.000000
      5          6.940383   0.000000
      6          9.369405   0.000000
      7         10.376444   0.000000
      8         10.376444   0.000000
 
  0.4000000E+00  0.2000000E+00 -0.4209018E-14  0.1920000E+00
      1         -4.644899   1.000000
      2          0.173056   1.000000
      3          2.856491   1.000000
      4          3.484584   1.000000
      5          7.253643   0.000000
      6          9.567418   0.000000
      7         10.418042   0.000000
      8         10.917241   0.000000
 
 -0.4000000E+00  0.2000000E+00 -0.4925815E-14  0.1920000E+00
      1         -3.759826   1.000000
      2         -1.221768   1.000000
      3          2.046939   1.000000
      4          3.767603   1.000000
      5          7.536562   0.000000
      6         10.089576   0.000000
      7         10.281398   0.000000
      8         13.051990   0.000000
 
 -0.2000000E+00  0.2000000E+00  0.1422590E-14  0.9600000E-01
      1         -5.133003   1.000000
      2          1.006542   1.000000
      3          2.478638   1.000000
      4          4.637359   1.000000
      5          8.373487   0.000000
      6          9.472957   0.000000
      7          9.795739   0.000000
      8         11.224507   0.000000
 
  0.4000000E+00  0.4000000E+00  0.1417691E-15  0.4800000E-01
      1         -3.768851   1.000000
      2         -0.695908   1.000000
      3          2.785497   1.000000
      4          2.785497   1.000000
      5          6.058738   0.000017
      6          6.788744   0.000000
      7         13.995117   0.000000
      8         13.995117   0.000000
 
 -0.4000000E+00  0.4000000E+00 -0.5869361E-15  0.9600000E-01
      1         -2.562726   1.000000
      2         -1.957853   1.000000
      3          1.413726   1.000000
      4          2.904424   1.000000
      5          6.507371   0.000000
      6          8.632582   0.000000
      7         13.579590   0.000000
      8         14.155549   0.000000
 
 -0.4000000E+00  0.4000000E+00  0.2000000E+00  0.1920000E+00
      1         -3.329127   1.000000
      2         -1.079624   1.000000
      3          1.498779   1.000000
      4          2.486884   1.000000
      5          8.876559   0.000000
      6          9.251455   0.000000
      7          9.915190   0.000000
      8         13.270845   0.000000
