       N       E                     dE             d eps       ncg     rms          rms(c)
DAV:   1    -0.107760349206E+02   -0.10776E+02   -0.26142E-10    80   0.255E-04    0.241E-06
DAV:   2    -0.107760349213E+02   -0.71540E-09   -0.15866E-10    80   0.155E-04
   1 F= -.10776035E+02 E0= -.10776034E+02  d E =-.997433E-06
