 vasp.6.3.2 27Jun22 (build Dec 02 2024 22:47:12) complex                        
  
 executed on             LinuxIFC date 2024.12.20  11:42:03
 running on    1 total cores
 distrk:  each k-point on    1 cores,    1 groups
 distr:  one band on NCORE=   1 cores,    1 groups


--------------------------------------------------------------------------------------------------------


 INCAR:
   SYSTEM = Si DFT Virtual Orbitals
   ENCUT = 500
   PREC = Accurate
   ISMEAR = 0
   SIGMA = 0.1
   IBRION = -1
   NSW = 0
   LDAU = .FALSE.
   LORBIT = 11
   NEDOS = 2000
   KPOINTS = automaticKPOINTS \= 5 5 5
   LORBIT = 11
   LORBIT = 11
   NEDOS = 2000
   LORBIT = 11
   NEDOS = 2000
   LORBIT = 11
   NEDOS = 2000

 POTCAR:    PAW_PBE Si_GW 04May2012               
 POTCAR:    PAW_PBE Si_GW 04May2012               
   VRHFIN =Si: s2p2                                                                                 
   LEXCH  = PE                                                                                      
   EATOM  =   103.0669 eV,    7.5752 Ry                                                             
                                                                                                    
   TITEL  = PAW_PBE Si_GW 04May2012                                                                 
   LULTRA =        F    use ultrasoft PP ?                                                          
   IUNSCR =        1    unscreen: 0-lin 1-nonlin 2-no                                               
   RPACOR =    1.500    partial core radius                                                         
   POMASS =   28.085; ZVAL   =    4.000    mass and valenz                                          
   RCORE  =    1.900    outmost cutoff radius                                                       
   RWIGS  =    2.480; RWIGS  =    1.312    wigner-seitz radius (au A)                               
   ENMAX  =  245.345; ENMIN  =  184.009 eV                                                          
   ICORE  =        3    local potential                                                             
   LCOR   =        T    correct aug charges                                                         
   LPAW   =        T    paw PP                                                                      
   EAUG   =  412.952                                                                                
   DEXC   =    0.000                                                                                
   RMAX   =    1.950    core radius for proj-oper                                                   
   RAUG   =    1.300    factor for augmentation sphere                                              
   RDEP   =    1.993    radius for radial grids                                                     
   RDEPT  =    2.000    core radius for aug-charge                                                  
                                                                                                    
   Atomic configuration                                                                             
    7 entries                                                                                       
     n  l   j            E        occ.                                                              
     1  0  0.50     -1785.8828   2.0000                                                             
     2  0  0.50      -139.4969   2.0000                                                             
     2  1  1.50       -95.5546   6.0000                                                             
     3  0  0.50       -10.8127   2.0000                                                             
     3  1  0.50        -4.0811   2.0000                                                             
     3  2  1.50        -4.0817   0.0000                                                             
     4  3  2.50        -4.0817   0.0000                                                             
   Description                                                                                      
     l       E           TYP  RCUT    TYP  RCUT                                                     
     0    -10.8127223     23  1.900                                                                 
     0     95.2407820     23  1.900                                                                 
     1     -4.0811372     23  1.900                                                                 
     1     54.4233040     23  1.900                                                                 
     2     -8.1634956     23  1.900                                                                 
     2     81.6349560     23  1.900                                                                 
     3     27.2116520     23  1.900                                                                 
  local pseudopotential read in
  partial core-charges read in
  partial kinetic energy density read in
  kinetic energy density of atom read in
  atomic valenz-charges read in
  non local Contribution for L=           0  read in
    real space projection operators read in
  non local Contribution for L=           0  read in
    real space projection operators read in
  non local Contribution for L=           1  read in
    real space projection operators read in
  non local Contribution for L=           1  read in
    real space projection operators read in
  non local Contribution for L=           2  read in
    real space projection operators read in
  non local Contribution for L=           2  read in
    real space projection operators read in
    PAW grid and wavefunctions read in
 
   number of l-projection  operators is LMAX  =           6
   number of lm-projection operators is LMMAX =          18
 
  PAW_PBE Si_GW 04May2012               :
 energy of atom  1       EATOM= -103.0669
 kinetic energy error for atom=    0.0006 (will be added to EATOM!!)
 
 
 POSCAR: system Si
  positions in cartesian coordinates
  No initial velocities read in
 exchange correlation table for  LEXCH =        8
   RHO(1)=    0.500       N(1)  =     2000
   RHO(2)=  100.500       N(2)  =     4000
 


--------------------------------------------------------------------------------------------------------


 ion  position               nearest neighbor table
   1  0.000  0.000  0.000-   2 2.35   2 2.35   2 2.35   2 2.35
   2  0.250  0.250  0.250-   1 2.35   1 2.35   1 2.35   1 2.35
 
  LATTYP: Found a face centered cubic cell.
 ALAT       =     5.4300000000
  
  Lattice vectors:
  
 A1 = (   2.7150000000,   2.7150000000,   0.0000000000)
 A2 = (   0.0000000000,   2.7150000000,   2.7150000000)
 A3 = (   2.7150000000,   0.0000000000,   2.7150000000)


Analysis of symmetry for initial positions (statically):
=====================================================================
 Subroutine PRICEL returns:
 Original cell was already a primitive cell.
 

 Routine SETGRP: Setting up the symmetry group for a 
 face centered cubic supercell.


 Subroutine GETGRP returns: Found 48 space group operations
 (whereof 24 operations were pure point group operations)
 out of a pool of 48 trial point group operations.


The static configuration has the point symmetry T_d .
 The point group associated with its full space group is O_h .


Analysis of symmetry for dynamics (positions and initial velocities):
=====================================================================
 Subroutine PRICEL returns:
 Original cell was already a primitive cell.
 

 Routine SETGRP: Setting up the symmetry group for a 
 face centered cubic supercell.


 Subroutine GETGRP returns: Found 48 space group operations
 (whereof 24 operations were pure point group operations)
 out of a pool of 48 trial point group operations.


The dynamic configuration has the point symmetry T_d .
 The point group associated with its full space group is O_h .


 Subroutine INISYM returns: Found 48 space group operations
 (whereof 24 operations are pure point group operations),
 and found     1 'primitive' translations


----------------------------------------------------------------------------------------

                                     Primitive cell                                     

  volume of cell :      40.0258

  direct lattice vectors                    reciprocal lattice vectors
     2.715000000  2.715000000  0.000000000     0.184162063  0.184162063 -0.184162063
     0.000000000  2.715000000  2.715000000    -0.184162063  0.184162063  0.184162063
     2.715000000  0.000000000  2.715000000     0.184162063 -0.184162063  0.184162063

  length of vectors
     3.839589822  3.839589822  3.839589822     0.318978049  0.318978049  0.318978049

  position of ions in fractional coordinates (direct lattice)
     0.000000000  0.000000000  0.000000000
     0.250000000  0.250000000  0.250000000

  ion indices of the primitive-cell ions
   primitive index   ion index
                 1           1
                 2           2

----------------------------------------------------------------------------------------

 
 -----------------------------------------------------------------------------
|                                                                             |
|           W    W    AA    RRRRR   N    N  II  N    N   GGGG   !!!           |
|           W    W   A  A   R    R  NN   N  II  NN   N  G    G  !!!           |
|           W    W  A    A  R    R  N N  N  II  N N  N  G       !!!           |
|           W WW W  AAAAAA  RRRRR   N  N N  II  N  N N  G  GGG   !            |
|           WW  WW  A    A  R   R   N   NN  II  N   NN  G    G                |
|           W    W  A    A  R    R  N    N  II  N    N   GGGG   !!!           |
|                                                                             |
|     The requested file  could not be found or opened for reading            |
|     k-point information. Automatic k-point generation is used as a          |
|     fallback, which may lead to unwanted results.                           |
|                                                                             |
 -----------------------------------------------------------------------------

 

Automatic generation of k-mesh.
 Grid dimensions derived from KSPACING:
 generate k-points for:    5    5    5

 Generating k-lattice:

  Cartesian coordinates                     Fractional coordinates (reciprocal lattice)
     0.036832413  0.036832413 -0.036832413     0.200000000  0.000000000  0.000000000
    -0.036832413  0.036832413  0.036832413     0.000000000  0.200000000 -0.000000000
     0.036832413 -0.036832413  0.036832413    -0.000000000 -0.000000000  0.200000000

  Length of vectors
     0.063795610  0.063795610  0.063795610

  Shift w.r.t. Gamma in fractional coordinates (k-lattice)
     0.000000000  0.000000000  0.000000000

 
 Subroutine IBZKPT returns following result:
 ===========================================
 
 Found     10 irreducible k-points:
 
 Following reciprocal coordinates:
            Coordinates               Weight
  0.000000  0.000000  0.000000      1.000000
  0.200000  0.000000 -0.000000      8.000000
  0.400000 -0.000000 -0.000000      8.000000
  0.200000  0.200000  0.000000      6.000000
  0.400000  0.200000 -0.000000     24.000000
 -0.400000  0.200000 -0.000000     24.000000
 -0.200000  0.200000  0.000000     12.000000
  0.400000  0.400000  0.000000      6.000000
 -0.400000  0.400000 -0.000000     12.000000
 -0.400000  0.400000  0.200000     24.000000
 
 Following cartesian coordinates:
            Coordinates               Weight
  0.000000  0.000000  0.000000      1.000000
  0.200000  0.200000 -0.200000      8.000000
  0.400000  0.400000 -0.400000      8.000000
  0.000000  0.400000  0.000000      6.000000
  0.200000  0.600000 -0.200000     24.000000
 -0.600000 -0.200000  0.600000     24.000000
 -0.400000 -0.000000  0.400000     12.000000
  0.000000  0.800000  0.000000      6.000000
 -0.800000  0.000000  0.800000     12.000000
 -0.600000 -0.200000  1.000000     24.000000
 


--------------------------------------------------------------------------------------------------------




 Dimension of arrays:
   k-points           NKPTS =     10   k-points in BZ     NKDIM =     10   number of bands    NBANDS=      8
   number of dos      NEDOS =   2000   number of ions     NIONS =      2
   non local maximal  LDIM  =      6   non local SUM 2l+1 LMDIM =     18
   total plane-waves  NPLWV =  21952
   max r-space proj   IRMAX =      1   max aug-charges    IRDMAX=  27118
   dimension x,y,z NGX =    28 NGY =   28 NGZ =   28
   dimension x,y,z NGXF=    56 NGYF=   56 NGZF=   56
   support grid    NGXF=    56 NGYF=   56 NGZF=   56
   ions per type =               2
   NGX,Y,Z   is equivalent  to a cutoff of  12.12, 12.12, 12.12 a.u.
   NGXF,Y,Z  is equivalent  to a cutoff of  24.25, 24.25, 24.25 a.u.

 SYSTEM =  Si DFT Virtual Orbitals                 
 POSCAR =  system Si                               

 Startparameter for this run:
   NWRITE =      2    write-flag & timer
   PREC   = accura    normal or accurate (medium, high low for compatibility)
   ISTART =      1    job   : 0-new  1-cont  2-samecut
   ICHARG =      0    charge: 1-file 2-atom 10-const
   ISPIN  =      1    spin polarized calculation?
   LNONCOLLINEAR =      F non collinear calculations
   LSORBIT =      F    spin-orbit coupling
   INIWAV =      1    electr: 0-lowe 1-rand  2-diag
   LASPH  =      F    aspherical Exc in radial PAW
 Electronic Relaxation 1
   ENCUT  =  500.0 eV  36.75 Ry    6.06 a.u.   7.00  7.00  7.00*2*pi/ulx,y,z
   ENINI  =  500.0     initial cutoff
   ENAUG  =  413.0 eV  augmentation charge cutoff
   NELM   =     60;   NELMIN=  2; NELMDL=  0     # of ELM steps 
   EDIFF  = 0.1E-03   stopping-criterion for ELM
   LREAL  =      F    real-space projection
   NLSPLINE    = F    spline interpolate recip. space projectors
   LCOMPAT=      F    compatible to vasp.4.4
   GGA_COMPAT  = T    GGA compatible to vasp.4.4-vasp.4.6
   LMAXPAW     = -100 max onsite density
   LMAXMIX     =    2 max onsite mixed and CHGCAR
   VOSKOWN=      0    Vosko Wilk Nusair interpolation
   ROPT   =    0.00000
 Ionic relaxation
   EDIFFG = 0.1E-02   stopping-criterion for IOM
   NSW    =      0    number of steps for IOM
   NBLOCK =      1;   KBLOCK =      1    inner block; outer block 
   IBRION =     -1    ionic relax: 0-MD 1-quasi-New 2-CG
   NFREE  =      0    steps in history (QN), initial steepest desc. (CG)
   ISIF   =      2    stress and relaxation
   IWAVPR =     10    prediction:  0-non 1-charg 2-wave 3-comb
   ISYM   =      2    0-nonsym 1-usesym 2-fastsym
   LCORR  =      T    Harris-Foulkes like correction to forces

   POTIM  = 0.5000    time-step for ionic-motion
   TEIN   =    0.0    initial temperature
   TEBEG  =    0.0;   TEEND  =   0.0 temperature during run
   SMASS  =  -3.00    Nose mass-parameter (am)
   estimated Nose-frequenzy (Omega)   =  0.10E-29 period in steps = 0.13E+47 mass=  -0.337E-27a.u.
   SCALEE = 1.0000    scale energy and forces
   NPACO  =    256;   APACO  = 10.0  distance and # of slots for P.C.
   PSTRESS=    0.0 pullay stress

  Mass of Ions in am
   POMASS =  28.09
  Ionic Valenz
   ZVAL   =   4.00
  Atomic Wigner-Seitz radii
   RWIGS  =  -1.00
  virtual crystal weights 
   VCA    =   1.00
   NELECT =       8.0000    total number of electrons
   NUPDOWN=      -1.0000    fix difference up-down

 DOS related values:
   EMIN   =  10.00;   EMAX   =-10.00  energy-range for DOS
   EFERMI =   0.00
   ISMEAR =     0;   SIGMA  =   0.10  broadening in eV -4-tet -1-fermi 0-gaus

 Electronic relaxation 2 (details)
   IALGO  =     38    algorithm
   LDIAG  =      T    sub-space diagonalisation (order eigenvalues)
   LSUBROT=      F    optimize rotation matrix (better conditioning)
   TURBO    =      0    0=normal 1=particle mesh
   IRESTART =      0    0=no restart 2=restart with 2 vectors
   NREBOOT  =      0    no. of reboots
   NMIN     =      0    reboot dimension
   EREF     =   0.00    reference energy to select bands
   IMIX   =      4    mixing-type and parameters
     AMIX     =   0.40;   BMIX     =  1.00
     AMIX_MAG =   1.60;   BMIX_MAG =  1.00
     AMIN     =   0.10
     WC   =   100.;   INIMIX=   1;  MIXPRE=   1;  MAXMIX= -45

 Intra band minimization:
   WEIMIN = 0.0000     energy-eigenvalue tresh-hold
   EBREAK =  0.31E-05  absolut break condition
   DEPER  =   0.30     relativ break condition  

   TIME   =   0.40     timestep for ELM

  volume/ion in A,a.u.               =      20.01       135.05
  Fermi-wavevector in a.u.,A,eV,Ry     =   0.957176  1.808800 12.465458  0.916185
  Thomas-Fermi vector in A             =   2.086170
 
 Write flags
   LWAVE        =      T    write WAVECAR
   LDOWNSAMPLE  =      F    k-point downsampling of WAVECAR
   LCHARG       =      T    write CHGCAR
   LVTOT        =      F    write LOCPOT, total local potential
   LVHAR        =      F    write LOCPOT, Hartree potential only
   LELF         =      F    write electronic localiz. function (ELF)
   LORBIT       =     11    0 simple, 1 ext, 2 COOP (PROOUT), +10 PAW based schemes


 Dipole corrections
   LMONO  =      F    monopole corrections only (constant potential shift)
   LDIPOL =      F    correct potential (dipole corrections)
   IDIPOL =      0    1-x, 2-y, 3-z, 4-all directions 
   EPSILON=  1.0000000 bulk dielectric constant

 Exchange correlation treatment:
   GGA     =    --    GGA type
   LEXCH   =     8    internal setting for exchange type
   LIBXC   =     F    Libxc                    
   VOSKOWN =     0    Vosko Wilk Nusair interpolation
   LHFCALC =     F    Hartree Fock is set to
   LHFONE  =     F    Hartree Fock one center treatment
   AEXX    =    0.0000 exact exchange contribution

 Linear response parameters
   LEPSILON=     F    determine dielectric tensor
   LRPA    =     F    only Hartree local field effects (RPA)
   LNABLA  =     F    use nabla operator in PAW spheres
   LVEL    =     F    velocity operator in full k-point grid
   CSHIFT  =0.1000    complex shift for real part using Kramers Kronig
   OMEGAMAX=  -1.0    maximum frequency
   DEG_THRESHOLD= 0.2000000E-02 threshold for treating states as degnerate
   RTIME   =   -0.100 relaxation time in fs
  (WPLASMAI=    0.000 imaginary part of plasma frequency in eV, 0.658/RTIME)
   DFIELD  = 0.0000000 0.0000000 0.0000000 field for delta impulse in time
 
  Optional k-point grid parameters
   LKPOINTS_OPT  =     F    use optional k-point grid
   KPOINTS_OPT_MODE=     1    mode for optional k-point grid
 
 Orbital magnetization related:
   ORBITALMAG=     F  switch on orbital magnetization
   LCHIMAG   =     F  perturbation theory with respect to B field
   DQ        =  0.001000  dq finite difference perturbation B field
   LLRAUG    =     F  two centre corrections for induced B field



--------------------------------------------------------------------------------------------------------


 Static calculation
 charge density and potential will be updated during run
 non-spin polarized calculation
 Variant of blocked Davidson
 Davidson routine will perform the subspace rotation
 perform sub-space diagonalisation
    after iterative eigenvector-optimisation
 modified Broyden-mixing scheme, WC =      100.0
 initial mixing is a Kerker type mixing with AMIX =  0.4000 and BMIX =      1.0000
 Hartree-type preconditioning will be used
 using additional bands            4
 reciprocal scheme for non local part
 use partial core corrections
 calculate Harris-corrections to forces 
   (improved forces if not selfconsistent)
 use gradient corrections 
 use of overlap-Matrix (Vanderbilt PP)
 Gauss-broadening in eV      SIGMA  =   0.10


--------------------------------------------------------------------------------------------------------


  energy-cutoff  :      500.00
  volume of cell :       40.03
      direct lattice vectors                 reciprocal lattice vectors
     2.715000000  2.715000000  0.000000000     0.184162063  0.184162063 -0.184162063
     0.000000000  2.715000000  2.715000000    -0.184162063  0.184162063  0.184162063
     2.715000000  0.000000000  2.715000000     0.184162063 -0.184162063  0.184162063

  length of vectors
     3.839589822  3.839589822  3.839589822     0.318978049  0.318978049  0.318978049


 
 old parameters found on file WAVECAR:
  energy-cutoff  :      500.00
  volume of cell :       40.03
      direct lattice vectors                 reciprocal lattice vectors
     2.715000000  2.715000000  0.000000000     0.184162063  0.184162063 -0.184162063
     0.000000000  2.715000000  2.715000000    -0.184162063  0.184162063  0.184162063
     2.715000000  0.000000000  2.715000000     0.184162063 -0.184162063  0.184162063

  length of vectors

 
 k-points in units of 2pi/SCALE and weight: read from INCAR                         
   0.00000000  0.00000000  0.00000000       0.008
   0.20000000  0.20000000 -0.20000000       0.064
   0.40000000  0.40000000 -0.40000000       0.064
   0.00000000  0.40000000  0.00000000       0.048
   0.20000000  0.60000000 -0.20000000       0.192
  -0.60000000 -0.20000000  0.60000000       0.192
  -0.40000000 -0.00000000  0.40000000       0.096
   0.00000000  0.80000000  0.00000000       0.048
  -0.80000000  0.00000000  0.80000000       0.096
  -0.60000000 -0.20000000  1.00000000       0.192
 
 k-points in reciprocal lattice and weights: read from INCAR                         
   0.00000000  0.00000000  0.00000000       0.008
   0.20000000  0.00000000 -0.00000000       0.064
   0.40000000 -0.00000000 -0.00000000       0.064
   0.20000000  0.20000000  0.00000000       0.048
   0.40000000  0.20000000 -0.00000000       0.192
  -0.40000000  0.20000000 -0.00000000       0.192
  -0.20000000  0.20000000  0.00000000       0.096
   0.40000000  0.40000000  0.00000000       0.048
  -0.40000000  0.40000000 -0.00000000       0.096
  -0.40000000  0.40000000  0.20000000       0.192
 
 position of ions in fractional coordinates (direct lattice) 
   0.00000000  0.00000000  0.00000000
   0.25000000  0.25000000  0.25000000
 
 position of ions in cartesian coordinates  (Angst):
   0.00000000  0.00000000  0.00000000
   1.35750000  1.35750000  1.35750000
 


--------------------------------------------------------------------------------------------------------


 k-point   1 :   0.0000 0.0000 0.0000  plane waves:     965
 k-point   2 :   0.2000 0.0000-0.0000  plane waves:    1001
 k-point   3 :   0.4000-0.0000-0.0000  plane waves:    1017
 k-point   4 :   0.2000 0.2000 0.0000  plane waves:     998
 k-point   5 :   0.4000 0.2000-0.0000  plane waves:    1011
 k-point   6 :  -0.4000 0.2000-0.0000  plane waves:    1012
 k-point   7 :  -0.2000 0.2000 0.0000  plane waves:    1015
 k-point   8 :   0.4000 0.4000 0.0000  plane waves:    1014
 k-point   9 :  -0.4000 0.4000-0.0000  plane waves:    1015
 k-point  10 :  -0.4000 0.4000 0.2000  plane waves:    1031

 maximum and minimum number of plane-waves per node :      1031      965

 maximum number of plane-waves:      1031
 maximum index in each direction: 
   IXMAX=    7   IYMAX=    6   IZMAX=    6
   IXMIN=   -7   IYMIN=   -7   IZMIN=   -7


 serial   3D FFT for wavefunctions
 parallel 3D FFT for charge:
    minimum data exchange during FFTs selected (reduces bandwidth)


 total amount of memory used by VASP MPI-rank0    48625. kBytes
=======================================================================

   base      :      30000. kBytes
   nonl-proj :       1517. kBytes
   fftplans  :       6192. kBytes
   grid      :       9520. kBytes
   one-center:         31. kBytes
   wavefun   :       1365. kBytes
 
     INWAV:  cpu time      0.0049: real time      0.0056
 Broyden mixing: mesh for mixing (old mesh)
   NGX = 13   NGY = 13   NGZ = 13
  (NGX  = 56   NGY  = 56   NGZ  = 56)
  gives a total of   2197 points

 charge density for first step will be calculated from the start-wavefunctions


--------------------------------------------------------------------------------------------------------


 Maximum index for augmentation-charges        26107 (set IRDMAX)


--------------------------------------------------------------------------------------------------------


 initial charge from wavefunction
 First call to EWALD:  gamma=   0.518
 Maximum number of real-space cells 3x 3x 3
 Maximum number of reciprocal cells 3x 3x 3

    FEWALD:  cpu time      0.0004: real time      0.0004


--------------------------------------- Iteration      1(   1)  ---------------------------------------


    POTLOK:  cpu time      0.0611: real time      0.0836
    SETDIJ:  cpu time      0.0070: real time      0.0070
     EDDAV:  cpu time      0.0545: real time      0.0546
       DOS:  cpu time      0.0004: real time      0.0004
    CHARGE:  cpu time      0.0141: real time      0.0141
    MIXING:  cpu time      0.0015: real time      0.0015
    --------------------------------------------
      LOOP:  cpu time      0.1387: real time      0.1613

 eigenvalue-minimisations  :    80
 total energy-change (2. order) :-0.1077603E+02  (-0.2614198E-10)
 number of electron       8.0000000 magnetization 
 augmentation part       -0.4731576 magnetization 

 Broyden mixing:
  rms(total) = 0.24096E-06    rms(broyden)= 0.24095E-06
  rms(prec ) = 0.80543E-06
  weight for this iteration     100.00

 Free energy of the ion-electron system (eV)
  ---------------------------------------------------
  alpha Z        PSCENC =         6.08881246
  Ewald energy   TEWEN  =      -228.56352493
  -Hartree energ DENC   =       -15.06340428
  -exchange      EXHF   =         0.00000000
  -V(xc)+E(xc)   XCENC  =       -18.19815590
  PAW double counting   =       258.99924098     -223.56626076
  entropy T*S    EENTRO =        -0.00000100
  eigenvalues    EBANDS =         3.39474506
  atomic energy  EATOM  =       206.13251344
  Solvation  Ediel_sol  =         0.00000000
  ---------------------------------------------------
  free energy    TOTEN  =       -10.77603492 eV

  energy without entropy =      -10.77603392  energy(sigma->0) =      -10.77603442


--------------------------------------------------------------------------------------------------------




--------------------------------------- Iteration      1(   2)  ---------------------------------------


    POTLOK:  cpu time      0.0400: real time      0.0400
    SETDIJ:  cpu time      0.0053: real time      0.0053
     EDDAV:  cpu time      0.0439: real time      0.0439
       DOS:  cpu time      0.0004: real time      0.0004
    --------------------------------------------
      LOOP:  cpu time      0.0896: real time      0.0896

 eigenvalue-minimisations  :    80
 total energy-change (2. order) :-0.7154028E-09  (-0.1586569E-10)
 number of electron       8.0000000 magnetization 
 augmentation part       -0.4731576 magnetization 

 Free energy of the ion-electron system (eV)
  ---------------------------------------------------
  alpha Z        PSCENC =         6.08881246
  Ewald energy   TEWEN  =      -228.56352493
  -Hartree energ DENC   =       -15.06340579
  -exchange      EXHF   =         0.00000000
  -V(xc)+E(xc)   XCENC  =       -18.19815606
  PAW double counting   =       258.99922530     -223.56624527
  entropy T*S    EENTRO =        -0.00000100
  eigenvalues    EBANDS =         3.39474692
  atomic energy  EATOM  =       206.13251344
  Solvation  Ediel_sol  =         0.00000000
  ---------------------------------------------------
  free energy    TOTEN  =       -10.77603492 eV

  energy without entropy =      -10.77603392  energy(sigma->0) =      -10.77603442


--------------------------------------------------------------------------------------------------------




 average (electrostatic) potential at core
  the test charge radii are     1.1243
  (the norm of the test charge is              1.0000)
       1 -67.0141       2 -67.0141
 
 
 
 E-fermi :   5.7658     XC(G=0):  -9.3882     alpha+bet :-11.6158

 Fermi energy:         5.7657894443

 k-point     1 :       0.0000    0.0000    0.0000
  band No.  band energies     occupation 
      1      -6.4825      2.00000
      2       5.4843      1.99993
      3       5.4843      1.99993
      4       5.4843      1.99993
      5       8.0417      0.00000
      6       8.0417      0.00000
      7       8.0417      0.00000
      8       8.8529      0.00000

 k-point     2 :       0.2000    0.0000   -0.0000
  band No.  band energies     occupation 
      1      -5.9649      2.00000
      2       2.4730      2.00000
      3       4.9035      2.00000
      4       4.9035      2.00000
      5       7.7021      0.00000
      6       8.8431      0.00000
      7       8.8431      0.00000
      8      11.5389      0.00000

 k-point     3 :       0.4000   -0.0000   -0.0000
  band No.  band energies     occupation 
      1      -4.6015      2.00000
      2      -0.7922      2.00000
      3       4.3555      2.00000
      4       4.3555      2.00000
      5       7.1020      0.00000
      6       8.8938      0.00000
      7       8.8938      0.00000
      8      13.3227      0.00000

 k-point     4 :       0.2000    0.2000    0.0000
  band No.  band energies     occupation 
      1      -5.7867      2.00000
      2       2.8607      2.00000
      3       3.9930      2.00000
      4       3.9930      2.00000
      5       6.9404      0.00000
      6       9.3694      0.00000
      7      10.3764      0.00000
      8      10.3764      0.00000

 k-point     5 :       0.4000    0.2000   -0.0000
  band No.  band energies     occupation 
      1      -4.6449      2.00000
      2       0.1731      2.00000
      3       2.8565      2.00000
      4       3.4846      2.00000
      5       7.2536      0.00000
      6       9.5674      0.00000
      7      10.4180      0.00000
      8      10.9172      0.00000

 k-point     6 :      -0.4000    0.2000   -0.0000
  band No.  band energies     occupation 
      1      -3.7598      2.00000
      2      -1.2218      2.00000
      3       2.0469      2.00000
      4       3.7676      2.00000
      5       7.5366      0.00000
      6      10.0896      0.00000
      7      10.2814      0.00000
      8      13.0520      0.00000

 k-point     7 :      -0.2000    0.2000    0.0000
  band No.  band energies     occupation 
      1      -5.1330      2.00000
      2       1.0065      2.00000
      3       2.4786      2.00000
      4       4.6374      2.00000
      5       8.3735      0.00000
      6       9.4730      0.00000
      7       9.7957      0.00000
      8      11.2245      0.00000

 k-point     8 :       0.4000    0.4000    0.0000
  band No.  band energies     occupation 
      1      -3.7689      2.00000
      2      -0.6959      2.00000
      3       2.7855      2.00000
      4       2.7855      2.00000
      5       6.0587      0.00003
      6       6.7887      0.00000
      7      13.9951      0.00000
      8      13.9951      0.00000

 k-point     9 :      -0.4000    0.4000   -0.0000
  band No.  band energies     occupation 
      1      -2.5627      2.00000
      2      -1.9579      2.00000
      3       1.4137      2.00000
      4       2.9044      2.00000
      5       6.5074      0.00000
      6       8.6326      0.00000
      7      13.5796      0.00000
      8      14.1555      0.00000

 k-point    10 :      -0.4000    0.4000    0.2000
  band No.  band energies     occupation 
      1      -3.3291      2.00000
      2      -1.0796      2.00000
      3       1.4988      2.00000
      4       2.4869      2.00000
      5       8.8766      0.00000
      6       9.2515      0.00000
      7       9.9152      0.00000
      8      13.2708      0.00000


--------------------------------------------------------------------------------------------------------


 soft charge-density along one line, spin component           1
         0         1         2         3         4         5         6         7         8         9
 total charge-density along one line
 
 pseudopotential strength for first ion, spin component:           1
 17.058 -18.266  -0.000  -0.000  -0.000   0.000   0.000   0.000
-18.266  50.856   0.000   0.000   0.000  -0.000  -0.000  -0.000
 -0.000   0.000   3.851  -0.000  -0.000 -11.260   0.000   0.000
 -0.000   0.000  -0.000   3.851  -0.000   0.000 -11.260   0.000
 -0.000   0.000  -0.000  -0.000   3.851   0.000   0.000 -11.260
  0.000  -0.000 -11.260   0.000   0.000  35.873  -0.000  -0.000
  0.000  -0.000   0.000 -11.260   0.000  -0.000  35.873  -0.000
  0.000  -0.000   0.000   0.000 -11.260  -0.000  -0.000  35.873
 -0.000  -0.000  -0.000   0.002  -0.000   0.000  -0.004   0.000
 -0.000  -0.000  -0.000  -0.000   0.002   0.000   0.000  -0.004
 -0.000  -0.000  -0.000   0.000  -0.000   0.000  -0.000   0.000
 -0.000  -0.000   0.002  -0.000  -0.000  -0.004   0.000   0.000
  0.000   0.000  -0.000  -0.000   0.000   0.000   0.000  -0.000
  0.000  -0.000   0.000  -0.007   0.000  -0.000   0.019  -0.000
  0.000  -0.000   0.000   0.000  -0.007  -0.000  -0.000   0.019
  0.000  -0.000   0.000  -0.000   0.000  -0.000   0.000  -0.000
  0.000  -0.000  -0.007   0.000   0.000   0.019  -0.000  -0.000
 -0.000   0.000   0.000   0.000  -0.000  -0.000  -0.000   0.000
 total augmentation occupancy for first ion, spin component:           1
  1.551   0.017   0.000   0.000   0.000   0.000   0.000   0.000  -0.000   0.000   0.000   0.000   0.000  -0.000   0.000   0.000
  0.017   0.000  -0.000   0.000  -0.000  -0.000  -0.000  -0.000  -0.000   0.000   0.000   0.000   0.000  -0.000   0.000   0.000
  0.000  -0.000   1.190   0.000  -0.000   0.026   0.000  -0.000   0.000  -0.000  -0.000   0.136   0.000   0.000   0.000   0.000
  0.000   0.000   0.000   1.190   0.000   0.000   0.026   0.000   0.136   0.000   0.000  -0.000  -0.000   0.000   0.000   0.000
  0.000  -0.000  -0.000   0.000   1.190  -0.000   0.000   0.026   0.000   0.136  -0.000  -0.000  -0.000   0.000   0.000  -0.000
  0.000  -0.000   0.026   0.000  -0.000   0.001  -0.000  -0.000   0.000  -0.000  -0.000   0.003   0.000   0.000  -0.000   0.000
  0.000  -0.000   0.000   0.026   0.000  -0.000   0.001   0.000   0.003   0.000   0.000  -0.000  -0.000   0.000   0.000   0.000
  0.000  -0.000  -0.000   0.000   0.026  -0.000   0.000   0.001   0.000   0.003  -0.000  -0.000  -0.000   0.000   0.000  -0.000
 -0.000  -0.000   0.000   0.136   0.000   0.000   0.003   0.000   0.026   0.000   0.000   0.000  -0.000   0.000   0.000   0.000
  0.000   0.000  -0.000   0.000   0.136  -0.000   0.000   0.003   0.000   0.026  -0.000  -0.000  -0.000   0.000   0.000  -0.000
  0.000   0.000  -0.000   0.000  -0.000  -0.000   0.000  -0.000   0.000  -0.000   0.007   0.000  -0.000   0.000  -0.000   0.000
  0.000   0.000   0.136  -0.000  -0.000   0.003  -0.000  -0.000   0.000  -0.000   0.000   0.026   0.000   0.000  -0.000   0.000
  0.000   0.000   0.000  -0.000  -0.000   0.000  -0.000  -0.000  -0.000  -0.000   0.000   0.000   0.007  -0.000   0.000   0.000
 -0.000  -0.000   0.000   0.000   0.000   0.000   0.000   0.000   0.000   0.000   0.000   0.000  -0.000   0.000   0.000   0.000
  0.000   0.000   0.000   0.000   0.000   0.000   0.000   0.000   0.000   0.000  -0.000  -0.000   0.000   0.000   0.000  -0.000
  0.000   0.000   0.000   0.000  -0.000   0.000   0.000  -0.000   0.000  -0.000   0.000   0.000  -0.000   0.000  -0.000   0.000
 -0.000   0.000   0.000  -0.000  -0.000   0.000  -0.000  -0.000   0.000  -0.000   0.000   0.000   0.000   0.000  -0.000   0.000
  0.000   0.000   0.000  -0.000   0.000   0.000  -0.000  -0.000  -0.000   0.000   0.000   0.000   0.000  -0.000  -0.000   0.000


------------------------ aborting loop because EDIFF is reached ----------------------------------------





 total charge

# of ion       s       p       d       tot
------------------------------------------
    1        0.732   0.935   0.061   1.728
    2        0.732   0.935   0.061   1.728
--------------------------------------------------
tot          1.464   1.871   0.122   3.457
 
    CHARGE:  cpu time      0.0121: real time      0.0121
    FORLOC:  cpu time      0.0022: real time      0.0022
    FORNL :  cpu time      0.0317: real time      0.0317
    STRESS:  cpu time      0.1110: real time      0.1111
    FORCOR:  cpu time      0.0407: real time      0.0407
    FORHAR:  cpu time      0.0105: real time      0.0105
    MIXING:  cpu time      0.0016: real time      0.0016
    OFIELD:  cpu time      0.0000: real time      0.0000

  FORCE on cell =-STRESS in cart. coord.  units (eV):
  Direction    XX          YY          ZZ          XY          YZ          ZX
  --------------------------------------------------------------------------------------
  Alpha Z     6.08881     6.08881     6.08881
  Ewald     -76.18788   -76.18788   -76.18788    -0.00000     0.00000    -0.00000
  Hartree     5.02114     5.02114     5.02114     0.00000     0.00000     0.00000
  E(xc)     -25.18324   -25.18324   -25.18324     0.00000     0.00000     0.00000
  Local     -26.53699   -26.53699   -26.53699     0.00000     0.00000     0.00000
  n-local    73.38215    67.98515    72.87896    -0.96004     0.73703     2.33912
  augment   -11.01152   -11.01152   -11.01152    -0.00000    -0.00000    -0.00000
  Kinetic    57.21026    54.86051    58.80143    -1.00022     0.92895     3.73962
  Fock        0.00000     0.00000     0.00000     0.00000     0.00000     0.00000
  -------------------------------------------------------------------------------------
  Total       0.56315     0.56315     0.56315     0.00000     0.00000    -0.00000
  in kB      22.54227    22.54227    22.54227     0.00000     0.00000    -0.00000
  external pressure =       22.54 kB  Pullay stress =        0.00 kB


 VOLUME and BASIS-vectors are now :
 -----------------------------------------------------------------------------
  energy-cutoff  :      500.00
  volume of cell :       40.03
      direct lattice vectors                 reciprocal lattice vectors
     2.715000000  2.715000000  0.000000000     0.184162063  0.184162063 -0.184162063
     0.000000000  2.715000000  2.715000000    -0.184162063  0.184162063  0.184162063
     2.715000000  0.000000000  2.715000000     0.184162063 -0.184162063  0.184162063

  length of vectors
     3.839589822  3.839589822  3.839589822     0.318978049  0.318978049  0.318978049


 FORCES acting on ions
    electron-ion (+dipol)            ewald-force                    non-local-force                 convergence-correction
 -----------------------------------------------------------------------------------------------
   0.145E-07 0.575E-08 0.145E-07   -.326E-14 0.274E-14 0.141E-14   0.500E-17 0.352E-16 0.674E-16   0.139E-11 0.140E-11 0.139E-11
   -.145E-07 -.575E-08 -.145E-07   0.284E-14 -.258E-14 -.126E-14   -.409E-17 -.444E-16 -.457E-16   -.140E-11 -.140E-11 -.140E-11
 -----------------------------------------------------------------------------------------------
   0.593E-13 -.671E-14 0.108E-12   -.426E-15 0.164E-15 0.147E-15   0.911E-18 -.927E-17 0.217E-16   -.573E-14 -.984E-15 -.522E-14
 
 
 POSITION                                       TOTAL-FORCE (eV/Angst)
 -----------------------------------------------------------------------------------
      0.00000      0.00000      0.00000         0.000000      0.000000      0.000000
      1.35750      1.35750      1.35750        -0.000000     -0.000000     -0.000000
 -----------------------------------------------------------------------------------
    total drift:                                0.000000     -0.000000      0.000000


--------------------------------------------------------------------------------------------------------



  FREE ENERGIE OF THE ION-ELECTRON SYSTEM (eV)
  ---------------------------------------------------
  free  energy   TOTEN  =       -10.77603492 eV

  energy  without entropy=      -10.77603392  energy(sigma->0) =      -10.77603442
 


--------------------------------------------------------------------------------------------------------


    POTLOK:  cpu time      0.0437: real time      0.0437


--------------------------------------------------------------------------------------------------------


 writing wavefunctions
     LOOP+:  cpu time      0.5958: real time      0.7291
    4ORBIT:  cpu time      0.0000: real time      0.0000



 total charge

# of ion       s       p       d       tot
------------------------------------------
    1        0.732   0.935   0.061   1.728
    2        0.732   0.935   0.061   1.728
--------------------------------------------------
tot          1.464   1.871   0.122   3.457
 

 total amount of memory used by VASP MPI-rank0    48625. kBytes
=======================================================================

   base      :      30000. kBytes
   nonl-proj :       1517. kBytes
   fftplans  :       6192. kBytes
   grid      :       9520. kBytes
   one-center:         31. kBytes
   wavefun   :       1365. kBytes
 
  
  
 General timing and accounting informations for this job:
 ========================================================
  
                  Total CPU time used (sec):        1.237
                            User time (sec):        0.985
                          System time (sec):        0.251
                         Elapsed time (sec):        2.100
  
                   Maximum memory used (kb):      288260.
                   Average memory used (kb):          N/A
  
                          Minor page faults:        23921
                          Major page faults:            0
                 Voluntary context switches:         1563
