PROCAR lm decomposed
# of k-points:   10         # of bands:    8         # of ions:    2

 k-point     1 :    0.00000000 0.00000000 0.00000000     weight = 0.00800000

band     1 # energy   -6.48249682 # occ.  2.00000000
 
ion      s     py     pz     px    dxy    dyz    dz2    dxz  x2-y2    tot
    1  0.204  0.000  0.000  0.000  0.000  0.000  0.000  0.000  0.000  0.204
    2  0.204  0.000  0.000  0.000  0.000  0.000  0.000  0.000  0.000  0.204
tot    0.408  0.000  0.000  0.000  0.000  0.000  0.000  0.000  0.000  0.408
 
band     2 # energy    5.48427995 # occ.  1.99993142
 
ion      s     py     pz     px    dxy    dyz    dz2    dxz  x2-y2    tot
    1  0.000  0.072  0.072  0.072  0.011  0.011  0.000  0.011  0.000  0.247
    2  0.000  0.072  0.072  0.072  0.011  0.011  0.000  0.011  0.000  0.247
tot    0.000  0.143  0.143  0.143  0.021  0.021  0.000  0.021  0.000  0.495
 
band     3 # energy    5.48428007 # occ.  1.99993142
 
ion      s     py     pz     px    dxy    dyz    dz2    dxz  x2-y2    tot
    1  0.000  0.079  0.014  0.122  0.002  0.018  0.000  0.012  0.000  0.247
    2  0.000  0.079  0.014  0.122  0.002  0.018  0.000  0.012  0.000  0.247
tot    0.000  0.159  0.028  0.244  0.004  0.036  0.000  0.024  0.000  0.495
 
band     4 # energy    5.48428007 # occ.  1.99993142
 
ion      s     py     pz     px    dxy    dyz    dz2    dxz  x2-y2    tot
    1  0.000  0.064  0.129  0.022  0.019  0.003  0.000  0.010  0.000  0.247
    2  0.000  0.064  0.129  0.022  0.019  0.003  0.000  0.010  0.000  0.247
tot    0.000  0.128  0.259  0.043  0.039  0.006  0.000  0.019  0.000  0.495
 
band     5 # energy    8.04168880 # occ.  0.00000000
 
ion      s     py     pz     px    dxy    dyz    dz2    dxz  x2-y2    tot
    1  0.000  0.051  0.051  0.051  0.012  0.012  0.000  0.012  0.000  0.187
    2  0.000  0.051  0.051  0.051  0.012  0.012  0.000  0.012  0.000  0.187
tot    0.000  0.101  0.101  0.101  0.023  0.023  0.000  0.023  0.000  0.374
 
band     6 # energy    8.04168890 # occ.  0.00000000
 
ion      s     py     pz     px    dxy    dyz    dz2    dxz  x2-y2    tot
    1  0.000  0.079  0.070  0.003  0.016  0.001  0.000  0.018  0.000  0.187
    2  0.000  0.079  0.070  0.003  0.016  0.001  0.000  0.018  0.000  0.187
tot    0.000  0.159  0.140  0.006  0.032  0.001  0.000  0.037  0.000  0.374
 
band     7 # energy    8.04168890 # occ.  0.00000000
 
ion      s     py     pz     px    dxy    dyz    dz2    dxz  x2-y2    tot
    1  0.000  0.022  0.032  0.099  0.007  0.023  0.000  0.005  0.000  0.187
    2  0.000  0.022  0.032  0.099  0.007  0.023  0.000  0.005  0.000  0.187
tot    0.000  0.044  0.063  0.197  0.015  0.045  0.000  0.010  0.000  0.374
 
band     8 # energy    8.85293228 # occ.  0.00000000
 
ion      s     py     pz     px    dxy    dyz    dz2    dxz  x2-y2    tot
    1  0.381  0.000  0.000  0.000  0.000  0.000  0.000  0.000  0.000  0.381
    2  0.381  0.000  0.000  0.000  0.000  0.000  0.000  0.000  0.000  0.381
tot    0.762  0.000  0.000  0.000  0.000  0.000  0.000  0.000  0.000  0.762
 

 k-point     2 :    0.20000000 0.00000000-0.00000000     weight = 0.06400000

band     1 # energy   -5.96485178 # occ.  2.00000000
 
ion      s     py     pz     px    dxy    dyz    dz2    dxz  x2-y2    tot
    1  0.202  0.002  0.002  0.002  0.000  0.000  0.000  0.000  0.000  0.208
    2  0.202  0.002  0.002  0.002  0.000  0.000  0.000  0.000  0.000  0.208
tot    0.405  0.003  0.003  0.003  0.000  0.000  0.000  0.000  0.000  0.416
 
band     2 # energy    2.47300033 # occ.  2.00000000
 
ion      s     py     pz     px    dxy    dyz    dz2    dxz  x2-y2    tot
    1  0.086  0.044  0.044  0.044  0.005  0.005  0.000  0.005  0.000  0.231
    2  0.086  0.044  0.044  0.044  0.005  0.005  0.000  0.005  0.000  0.231
tot    0.172  0.087  0.087  0.087  0.009  0.009  0.000  0.009  0.000  0.461
 
band     3 # energy    4.90354789 # occ.  2.00000000
 
ion      s     py     pz     px    dxy    dyz    dz2    dxz  x2-y2    tot
    1  0.000  0.035  0.141  0.035  0.015  0.004  0.001  0.004  0.000  0.235
    2  0.000  0.035  0.141  0.035  0.015  0.004  0.001  0.004  0.000  0.235
tot    0.000  0.071  0.282  0.071  0.030  0.007  0.001  0.007  0.000  0.469
 
band     4 # energy    4.90354799 # occ.  2.00000000
 
ion      s     py     pz     px    dxy    dyz    dz2    dxz  x2-y2    tot
    1  0.000  0.106  0.000  0.106  0.000  0.011  0.000  0.011  0.001  0.235
    2  0.000  0.106  0.000  0.106  0.000  0.011  0.000  0.011  0.001  0.235
tot    0.000  0.212  0.000  0.212  0.000  0.022  0.000  0.022  0.001  0.469
 
band     5 # energy    7.70207121 # occ.  0.00000000
 
ion      s     py     pz     px    dxy    dyz    dz2    dxz  x2-y2    tot
    1  0.147  0.021  0.021  0.021  0.010  0.010  0.000  0.010  0.000  0.240
    2  0.147  0.021  0.021  0.021  0.010  0.010  0.000  0.010  0.000  0.240
tot    0.294  0.042  0.042  0.042  0.021  0.021  0.000  0.021  0.000  0.480
 
band     6 # energy    8.84306584 # occ.  0.00000000
 
ion      s     py     pz     px    dxy    dyz    dz2    dxz  x2-y2    tot
    1  0.000  0.025  0.101  0.025  0.024  0.006  0.008  0.006  0.000  0.196
    2  0.000  0.025  0.101  0.025  0.024  0.006  0.008  0.006  0.000  0.196
tot    0.000  0.050  0.202  0.050  0.049  0.012  0.017  0.012  0.000  0.392
 
band     7 # energy    8.84306592 # occ.  0.00000000
 
ion      s     py     pz     px    dxy    dyz    dz2    dxz  x2-y2    tot
    1  0.000  0.076  0.000  0.076  0.000  0.018  0.000  0.018  0.008  0.196
    2  0.000  0.076  0.000  0.076  0.000  0.018  0.000  0.018  0.008  0.196
tot    0.000  0.151  0.000  0.151  0.000  0.036  0.000  0.036  0.017  0.392
 
band     8 # energy   11.53890061 # occ.  0.00000000
 
ion      s     py     pz     px    dxy    dyz    dz2    dxz  x2-y2    tot
    1  0.161  0.045  0.045  0.045  0.006  0.006  0.000  0.006  0.000  0.312
    2  0.161  0.045  0.045  0.045  0.006  0.006  0.000  0.006  0.000  0.312
tot    0.322  0.089  0.089  0.089  0.011  0.011  0.000  0.011  0.000  0.624
 

 k-point     3 :    0.40000000-0.00000000-0.00000000     weight = 0.06400000

band     1 # energy   -4.60148649 # occ.  2.00000000
 
ion      s     py     pz     px    dxy    dyz    dz2    dxz  x2-y2    tot
    1  0.208  0.005  0.005  0.005  0.001  0.001  0.000  0.001  0.000  0.224
    2  0.208  0.005  0.005  0.005  0.001  0.001  0.000  0.001  0.000  0.224
tot    0.416  0.010  0.010  0.010  0.001  0.001  0.000  0.001  0.000  0.449
 
band     2 # energy   -0.79224583 # occ.  2.00000000
 
ion      s     py     pz     px    dxy    dyz    dz2    dxz  x2-y2    tot
    1  0.105  0.031  0.031  0.031  0.001  0.001  0.000  0.001  0.000  0.202
    2  0.105  0.031  0.031  0.031  0.001  0.001  0.000  0.001  0.000  0.202
tot    0.209  0.062  0.062  0.062  0.002  0.002  0.000  0.002  0.000  0.403
 
band     3 # energy    4.35550727 # occ.  2.00000000
 
ion      s     py     pz     px    dxy    dyz    dz2    dxz  x2-y2    tot
    1  0.000  0.036  0.144  0.036  0.009  0.002  0.002  0.002  0.000  0.230
    2  0.000  0.036  0.144  0.036  0.009  0.002  0.002  0.002  0.000  0.230
tot    0.000  0.072  0.287  0.072  0.017  0.004  0.004  0.004  0.000  0.460
 
band     4 # energy    4.35550738 # occ.  2.00000000
 
ion      s     py     pz     px    dxy    dyz    dz2    dxz  x2-y2    tot
    1  0.000  0.108  0.000  0.108  0.000  0.006  0.000  0.006  0.002  0.230
    2  0.000  0.108  0.000  0.108  0.000  0.006  0.000  0.006  0.002  0.230
tot    0.000  0.215  0.000  0.215  0.000  0.013  0.000  0.013  0.004  0.460
 
band     5 # energy    7.10201967 # occ.  0.00000000
 
ion      s     py     pz     px    dxy    dyz    dz2    dxz  x2-y2    tot
    1  0.190  0.008  0.008  0.008  0.011  0.011  0.000  0.011  0.000  0.248
    2  0.190  0.008  0.008  0.008  0.011  0.011  0.000  0.011  0.000  0.248
tot    0.381  0.016  0.016  0.016  0.023  0.023  0.000  0.023  0.000  0.496
 
band     6 # energy    8.89383510 # occ.  0.00000000
 
ion      s     py     pz     px    dxy    dyz    dz2    dxz  x2-y2    tot
    1  0.000  0.017  0.068  0.017  0.017  0.004  0.035  0.004  0.000  0.162
    2  0.000  0.017  0.068  0.017  0.017  0.004  0.035  0.004  0.000  0.162
tot    0.000  0.034  0.136  0.034  0.034  0.009  0.069  0.009  0.000  0.325
 
band     7 # energy    8.89383515 # occ.  0.00000000
 
ion      s     py     pz     px    dxy    dyz    dz2    dxz  x2-y2    tot
    1  0.000  0.051  0.000  0.051  0.000  0.013  0.000  0.013  0.035  0.162
    2  0.000  0.051  0.000  0.051  0.000  0.013  0.000  0.013  0.035  0.162
tot    0.000  0.102  0.000  0.102  0.000  0.026  0.000  0.026  0.069  0.325
 
band     8 # energy   13.32269173 # occ.  0.00000000
 
ion      s     py     pz     px    dxy    dyz    dz2    dxz  x2-y2    tot
    1  0.004  0.024  0.024  0.024  0.006  0.006  0.000  0.006  0.000  0.092
    2  0.004  0.024  0.024  0.024  0.006  0.006  0.000  0.006  0.000  0.092
tot    0.008  0.047  0.047  0.047  0.011  0.011  0.000  0.011  0.000  0.183
 

 k-point     4 :    0.20000000 0.20000000 0.00000000     weight = 0.04800000

band     1 # energy   -5.78671140 # occ.  2.00000000
 
ion      s     py     pz     px    dxy    dyz    dz2    dxz  x2-y2    tot
    1  0.201  0.007  0.000  0.000  0.000  0.000  0.000  0.000  0.000  0.209
    2  0.201  0.007  0.000  0.000  0.000  0.000  0.000  0.000  0.000  0.209
tot    0.403  0.015  0.000  0.000  0.000  0.000  0.000  0.001  0.000  0.418
 
band     2 # energy    2.86071164 # occ.  2.00000000
 
ion      s     py     pz     px    dxy    dyz    dz2    dxz  x2-y2    tot
    1  0.140  0.114  0.000  0.000  0.000  0.000  0.000  0.017  0.001  0.272
    2  0.140  0.114  0.000  0.000  0.000  0.000  0.000  0.017  0.001  0.272
tot    0.280  0.229  0.000  0.000  0.000  0.000  0.000  0.033  0.001  0.543
 
band     3 # energy    3.99301560 # occ.  2.00000000
 
ion      s     py     pz     px    dxy    dyz    dz2    dxz  x2-y2    tot
    1  0.000  0.000  0.099  0.099  0.008  0.008  0.000  0.000  0.000  0.213
    2  0.000  0.000  0.099  0.099  0.008  0.008  0.000  0.000  0.000  0.213
tot    0.000  0.000  0.198  0.198  0.016  0.016  0.000  0.000  0.000  0.427
 
band     4 # energy    3.99301567 # occ.  2.00000000
 
ion      s     py     pz     px    dxy    dyz    dz2    dxz  x2-y2    tot
    1  0.000  0.000  0.099  0.099  0.008  0.008  0.000  0.000  0.000  0.213
    2  0.000  0.000  0.099  0.099  0.008  0.008  0.000  0.000  0.000  0.213
tot    0.000  0.000  0.198  0.198  0.016  0.016  0.000  0.000  0.000  0.427
 
band     5 # energy    6.94038288 # occ.  0.00000000
 
ion      s     py     pz     px    dxy    dyz    dz2    dxz  x2-y2    tot
    1  0.037  0.092  0.000  0.000  0.000  0.000  0.001  0.030  0.004  0.164
    2  0.037  0.092  0.000  0.000  0.000  0.000  0.001  0.030  0.004  0.164
tot    0.074  0.184  0.000  0.000  0.000  0.000  0.003  0.060  0.008  0.328
 
band     6 # energy    9.36940459 # occ.  0.00000000
 
ion      s     py     pz     px    dxy    dyz    dz2    dxz  x2-y2    tot
    1  0.076  0.050  0.000  0.000  0.000  0.000  0.011  0.008  0.033  0.178
    2  0.076  0.050  0.000  0.000  0.000  0.000  0.011  0.008  0.033  0.178
tot    0.152  0.101  0.000  0.000  0.000  0.000  0.022  0.015  0.065  0.355
 
band     7 # energy   10.37644436 # occ.  0.00000000
 
ion      s     py     pz     px    dxy    dyz    dz2    dxz  x2-y2    tot
    1  0.000  0.000  0.085  0.085  0.028  0.029  0.000  0.000  0.000  0.226
    2  0.000  0.000  0.085  0.085  0.029  0.028  0.000  0.000  0.000  0.226
tot    0.000  0.000  0.169  0.169  0.057  0.057  0.000  0.000  0.000  0.453
 
band     8 # energy   10.37644444 # occ.  0.00000000
 
ion      s     py     pz     px    dxy    dyz    dz2    dxz  x2-y2    tot
    1  0.000  0.000  0.085  0.085  0.029  0.028  0.000  0.000  0.000  0.226
    2  0.000  0.000  0.085  0.085  0.028  0.029  0.000  0.000  0.000  0.226
tot    0.000  0.000  0.169  0.169  0.057  0.057  0.000  0.000  0.000  0.453
 

 k-point     5 :    0.40000000 0.20000000-0.00000000     weight = 0.19200000

band     1 # energy   -4.64489867 # occ.  2.00000000
 
ion      s     py     pz     px    dxy    dyz    dz2    dxz  x2-y2    tot
    1  0.201  0.015  0.001  0.001  0.000  0.000  0.000  0.001  0.000  0.220
    2  0.201  0.015  0.001  0.001  0.000  0.000  0.000  0.001  0.000  0.220
tot    0.402  0.029  0.003  0.003  0.001  0.001  0.000  0.002  0.000  0.440
 
band     2 # energy    0.17305604 # occ.  2.00000000
 
ion      s     py     pz     px    dxy    dyz    dz2    dxz  x2-y2    tot
    1  0.140  0.041  0.024  0.024  0.001  0.001  0.000  0.006  0.000  0.236
    2  0.140  0.041  0.024  0.024  0.001  0.001  0.000  0.006  0.000  0.236
tot    0.279  0.082  0.048  0.048  0.002  0.002  0.000  0.011  0.000  0.472
 
band     3 # energy    2.85649061 # occ.  2.00000000
 
ion      s     py     pz     px    dxy    dyz    dz2    dxz  x2-y2    tot
    1  0.033  0.070  0.045  0.045  0.002  0.002  0.001  0.004  0.002  0.204
    2  0.033  0.070  0.045  0.045  0.002  0.002  0.001  0.004  0.002  0.204
tot    0.067  0.139  0.089  0.089  0.004  0.004  0.002  0.009  0.005  0.407
 
band     4 # energy    3.48458350 # occ.  2.00000000
 
ion      s     py     pz     px    dxy    dyz    dz2    dxz  x2-y2    tot
    1  0.000  0.000  0.100  0.100  0.005  0.005  0.001  0.000  0.000  0.209
    2  0.000  0.000  0.100  0.100  0.005  0.005  0.001  0.000  0.000  0.209
tot    0.000  0.000  0.199  0.199  0.009  0.009  0.001  0.000  0.000  0.418
 
band     5 # energy    7.25364339 # occ.  0.00000000
 
ion      s     py     pz     px    dxy    dyz    dz2    dxz  x2-y2    tot
    1  0.047  0.057  0.007  0.007  0.001  0.001  0.004  0.025  0.013  0.161
    2  0.047  0.057  0.007  0.007  0.001  0.001  0.004  0.025  0.013  0.161
tot    0.095  0.113  0.013  0.013  0.001  0.001  0.009  0.051  0.026  0.322
 
band     6 # energy    9.56741814 # occ.  0.00000000
 
ion      s     py     pz     px    dxy    dyz    dz2    dxz  x2-y2    tot
    1  0.035  0.023  0.024  0.024  0.001  0.001  0.007  0.027  0.021  0.165
    2  0.035  0.023  0.024  0.024  0.001  0.001  0.007  0.027  0.021  0.165
tot    0.070  0.046  0.049  0.049  0.003  0.003  0.014  0.054  0.043  0.331
 
band     7 # energy   10.41804165 # occ.  0.00000000
 
ion      s     py     pz     px    dxy    dyz    dz2    dxz  x2-y2    tot
    1  0.062  0.029  0.047  0.047  0.022  0.022  0.001  0.003  0.003  0.237
    2  0.062  0.029  0.047  0.047  0.022  0.022  0.001  0.003  0.003  0.237
tot    0.125  0.059  0.093  0.093  0.044  0.044  0.002  0.007  0.007  0.475
 
band     8 # energy   10.91724136 # occ.  0.00000000
 
ion      s     py     pz     px    dxy    dyz    dz2    dxz  x2-y2    tot
    1  0.000  0.000  0.064  0.064  0.020  0.020  0.023  0.000  0.008  0.199
    2  0.000  0.000  0.064  0.064  0.020  0.020  0.023  0.000  0.008  0.199
tot    0.000  0.000  0.128  0.128  0.041  0.041  0.046  0.000  0.015  0.398
 

 k-point     6 :   -0.40000000 0.20000000-0.00000000     weight = 0.19200000

band     1 # energy   -3.75982622 # occ.  2.00000000
 
ion      s     py     pz     px    dxy    dyz    dz2    dxz  x2-y2    tot
    1  0.213  0.007  0.006  0.006  0.001  0.001  0.000  0.002  0.000  0.236
    2  0.213  0.007  0.006  0.006  0.001  0.001  0.000  0.002  0.000  0.236
tot    0.426  0.014  0.013  0.013  0.002  0.002  0.000  0.003  0.000  0.472
 
band     2 # energy   -1.22176824 # occ.  2.00000000
 
ion      s     py     pz     px    dxy    dyz    dz2    dxz  x2-y2    tot
    1  0.127  0.035  0.023  0.023  0.001  0.001  0.000  0.001  0.000  0.211
    2  0.127  0.035  0.023  0.023  0.001  0.001  0.000  0.001  0.000  0.211
tot    0.254  0.070  0.046  0.046  0.002  0.002  0.000  0.002  0.000  0.423
 
band     3 # energy    2.04693903 # occ.  2.00000000
 
ion      s     py     pz     px    dxy    dyz    dz2    dxz  x2-y2    tot
    1  0.037  0.080  0.034  0.034  0.001  0.001  0.001  0.003  0.002  0.192
    2  0.037  0.080  0.034  0.034  0.001  0.001  0.001  0.003  0.002  0.192
tot    0.074  0.160  0.068  0.068  0.003  0.003  0.001  0.006  0.004  0.385
 
band     4 # energy    3.76760313 # occ.  2.00000000
 
ion      s     py     pz     px    dxy    dyz    dz2    dxz  x2-y2    tot
    1  0.000  0.000  0.103  0.103  0.004  0.004  0.002  0.000  0.001  0.216
    2  0.000  0.000  0.103  0.103  0.004  0.004  0.002  0.000  0.001  0.216
tot    0.000  0.000  0.206  0.206  0.008  0.008  0.005  0.000  0.002  0.433
 
band     5 # energy    7.53656158 # occ.  0.00000000
 
ion      s     py     pz     px    dxy    dyz    dz2    dxz  x2-y2    tot
    1  0.065  0.053  0.001  0.001  0.000  0.000  0.005  0.025  0.015  0.167
    2  0.065  0.053  0.001  0.001  0.000  0.000  0.005  0.025  0.015  0.167
tot    0.130  0.105  0.003  0.003  0.001  0.001  0.010  0.051  0.031  0.334
 
band     6 # energy   10.08957569 # occ.  0.00000000
 
ion      s     py     pz     px    dxy    dyz    dz2    dxz  x2-y2    tot
    1  0.061  0.052  0.025  0.025  0.019  0.019  0.002  0.009  0.006  0.219
    2  0.061  0.052  0.025  0.025  0.019  0.019  0.002  0.009  0.006  0.219
tot    0.123  0.104  0.050  0.050  0.038  0.038  0.004  0.018  0.013  0.439
 
band     7 # energy   10.28139849 # occ.  0.00000000
 
ion      s     py     pz     px    dxy    dyz    dz2    dxz  x2-y2    tot
    1  0.000  0.000  0.056  0.056  0.016  0.016  0.026  0.000  0.009  0.178
    2  0.000  0.000  0.056  0.056  0.016  0.016  0.026  0.000  0.009  0.178
tot    0.000  0.000  0.112  0.112  0.033  0.033  0.051  0.000  0.017  0.356
 
band     8 # energy   13.05198952 # occ.  0.00000000
 
ion      s     py     pz     px    dxy    dyz    dz2    dxz  x2-y2    tot
    1  0.018  0.017  0.046  0.046  0.002  0.002  0.005  0.048  0.016  0.201
    2  0.018  0.017  0.046  0.046  0.002  0.002  0.005  0.048  0.016  0.201
tot    0.036  0.035  0.092  0.092  0.004  0.004  0.011  0.096  0.032  0.401
 

 k-point     7 :   -0.20000000 0.20000000 0.00000000     weight = 0.09600000

band     1 # energy   -5.13300317 # occ.  2.00000000
 
ion      s     py     pz     px    dxy    dyz    dz2    dxz  x2-y2    tot
    1  0.201  0.001  0.006  0.006  0.000  0.000  0.000  0.000  0.000  0.215
    2  0.201  0.001  0.006  0.006  0.000  0.000  0.000  0.000  0.000  0.215
tot    0.403  0.001  0.012  0.012  0.001  0.001  0.000  0.001  0.000  0.431
 
band     2 # energy    1.00654178 # occ.  2.00000000
 
ion      s     py     pz     px    dxy    dyz    dz2    dxz  x2-y2    tot
    1  0.137  0.036  0.031  0.031  0.005  0.005  0.000  0.000  0.000  0.245
    2  0.137  0.036  0.031  0.031  0.005  0.005  0.000  0.000  0.000  0.245
tot    0.274  0.072  0.062  0.062  0.010  0.010  0.000  0.000  0.000  0.491
 
band     3 # energy    2.47863834 # occ.  2.00000000
 
ion      s     py     pz     px    dxy    dyz    dz2    dxz  x2-y2    tot
    1  0.014  0.092  0.034  0.034  0.001  0.001  0.000  0.006  0.001  0.183
    2  0.014  0.092  0.034  0.034  0.001  0.001  0.000  0.006  0.001  0.183
tot    0.028  0.185  0.067  0.067  0.002  0.002  0.001  0.012  0.002  0.365
 
band     4 # energy    4.63735894 # occ.  2.00000000
 
ion      s     py     pz     px    dxy    dyz    dz2    dxz  x2-y2    tot
    1  0.000  0.000  0.108  0.108  0.007  0.007  0.003  0.000  0.001  0.234
    2  0.000  0.000  0.108  0.108  0.007  0.007  0.003  0.000  0.001  0.234
tot    0.000  0.000  0.216  0.216  0.014  0.014  0.006  0.000  0.002  0.468
 
band     5 # energy    8.37348661 # occ.  0.00000000
 
ion      s     py     pz     px    dxy    dyz    dz2    dxz  x2-y2    tot
    1  0.086  0.079  0.001  0.001  0.000  0.000  0.003  0.027  0.010  0.209
    2  0.086  0.079  0.001  0.001  0.000  0.000  0.003  0.027  0.010  0.209
tot    0.172  0.159  0.002  0.002  0.000  0.000  0.007  0.054  0.020  0.417
 
band     6 # energy    9.47295660 # occ.  0.00000000
 
ion      s     py     pz     px    dxy    dyz    dz2    dxz  x2-y2    tot
    1  0.000  0.000  0.075  0.075  0.017  0.017  0.007  0.000  0.002  0.194
    2  0.000  0.000  0.075  0.075  0.017  0.017  0.007  0.000  0.002  0.194
tot    0.000  0.000  0.151  0.151  0.034  0.034  0.015  0.000  0.005  0.389
 
band     7 # energy    9.79573873 # occ.  0.00000000
 
ion      s     py     pz     px    dxy    dyz    dz2    dxz  x2-y2    tot
    1  0.034  0.108  0.005  0.005  0.022  0.022  0.000  0.018  0.001  0.214
    2  0.034  0.108  0.005  0.005  0.022  0.022  0.000  0.018  0.001  0.214
tot    0.068  0.215  0.009  0.009  0.044  0.044  0.000  0.037  0.001  0.428
 
band     8 # energy   11.22450718 # occ.  0.00000000
 
ion      s     py     pz     px    dxy    dyz    dz2    dxz  x2-y2    tot
    1  0.077  0.010  0.045  0.045  0.003  0.003  0.007  0.000  0.022  0.212
    2  0.077  0.010  0.045  0.045  0.003  0.003  0.007  0.000  0.022  0.212
tot    0.154  0.019  0.091  0.091  0.005  0.005  0.015  0.000  0.045  0.424
 

 k-point     8 :    0.40000000 0.40000000 0.00000000     weight = 0.04800000

band     1 # energy   -3.76885072 # occ.  2.00000000
 
ion      s     py     pz     px    dxy    dyz    dz2    dxz  x2-y2    tot
    1  0.195  0.029  0.000  0.000  0.000  0.000  0.000  0.002  0.000  0.225
    2  0.195  0.029  0.000  0.000  0.000  0.000  0.000  0.002  0.000  0.225
tot    0.389  0.057  0.000  0.000  0.000  0.000  0.000  0.004  0.001  0.451
 
band     2 # energy   -0.69590838 # occ.  2.00000000
 
ion      s     py     pz     px    dxy    dyz    dz2    dxz  x2-y2    tot
    1  0.182  0.063  0.000  0.000  0.000  0.000  0.000  0.006  0.001  0.252
    2  0.182  0.063  0.000  0.000  0.000  0.000  0.000  0.006  0.001  0.252
tot    0.365  0.125  0.000  0.000  0.000  0.000  0.001  0.013  0.002  0.505
 
band     3 # energy    2.78549664 # occ.  2.00000000
 
ion      s     py     pz     px    dxy    dyz    dz2    dxz  x2-y2    tot
    1  0.000  0.000  0.097  0.097  0.002  0.002  0.000  0.000  0.000  0.199
    2  0.000  0.000  0.097  0.097  0.002  0.002  0.000  0.000  0.000  0.199
tot    0.000  0.000  0.195  0.195  0.005  0.005  0.000  0.000  0.000  0.399
 
band     4 # energy    2.78549671 # occ.  2.00000000
 
ion      s     py     pz     px    dxy    dyz    dz2    dxz  x2-y2    tot
    1  0.000  0.000  0.097  0.097  0.002  0.002  0.000  0.000  0.000  0.199
    2  0.000  0.000  0.097  0.097  0.002  0.002  0.000  0.000  0.000  0.199
tot    0.000  0.000  0.195  0.195  0.005  0.005  0.000  0.000  0.000  0.399
 
band     5 # energy    6.05873774 # occ.  0.00003429
 
ion      s     py     pz     px    dxy    dyz    dz2    dxz  x2-y2    tot
    1  0.055  0.046  0.000  0.000  0.000  0.000  0.004  0.027  0.011  0.143
    2  0.055  0.046  0.000  0.000  0.000  0.000  0.004  0.027  0.011  0.143
tot    0.111  0.092  0.000  0.000  0.000  0.000  0.007  0.054  0.022  0.287
 
band     6 # energy    6.78874445 # occ.  0.00000000
 
ion      s     py     pz     px    dxy    dyz    dz2    dxz  x2-y2    tot
    1  0.049  0.030  0.000  0.000  0.000  0.000  0.007  0.023  0.021  0.130
    2  0.049  0.030  0.000  0.000  0.000  0.000  0.007  0.023  0.021  0.130
tot    0.098  0.060  0.000  0.000  0.000  0.000  0.014  0.045  0.042  0.259
 
band     7 # energy   13.99511711 # occ.  0.00000000
 
ion      s     py     pz     px    dxy    dyz    dz2    dxz  x2-y2    tot
    1  0.000  0.000  0.085  0.086  0.040  0.040  0.000  0.000  0.000  0.251
    2  0.000  0.000  0.086  0.085  0.040  0.040  0.000  0.000  0.000  0.251
tot    0.000  0.000  0.171  0.171  0.080  0.080  0.000  0.000  0.000  0.501
 
band     8 # energy   13.99511719 # occ.  0.00000000
 
ion      s     py     pz     px    dxy    dyz    dz2    dxz  x2-y2    tot
    1  0.000  0.000  0.086  0.085  0.040  0.040  0.000  0.000  0.000  0.251
    2  0.000  0.000  0.085  0.086  0.040  0.040  0.000  0.000  0.000  0.251
tot    0.000  0.000  0.171  0.171  0.080  0.080  0.000  0.000  0.000  0.501
 

 k-point     9 :   -0.40000000 0.40000000-0.00000000     weight = 0.09600000

band     1 # energy   -2.56272629 # occ.  2.00000000
 
ion      s     py     pz     px    dxy    dyz    dz2    dxz  x2-y2    tot
    1  0.205  0.030  0.003  0.003  0.000  0.000  0.000  0.004  0.000  0.245
    2  0.205  0.030  0.003  0.003  0.000  0.000  0.000  0.004  0.000  0.245
tot    0.410  0.059  0.006  0.006  0.001  0.001  0.000  0.007  0.000  0.490
 
band     2 # energy   -1.95785329 # occ.  2.00000000
 
ion      s     py     pz     px    dxy    dyz    dz2    dxz  x2-y2    tot
    1  0.184  0.043  0.004  0.004  0.001  0.001  0.000  0.003  0.000  0.239
    2  0.184  0.043  0.004  0.004  0.001  0.001  0.000  0.003  0.000  0.239
tot    0.368  0.086  0.007  0.007  0.001  0.001  0.000  0.006  0.001  0.478
 
band     3 # energy    1.41372627 # occ.  2.00000000
 
ion      s     py     pz     px    dxy    dyz    dz2    dxz  x2-y2    tot
    1  0.001  0.031  0.063  0.063  0.000  0.000  0.001  0.000  0.002  0.161
    2  0.001  0.031  0.063  0.063  0.000  0.000  0.001  0.000  0.002  0.161
tot    0.001  0.063  0.125  0.125  0.001  0.001  0.002  0.000  0.005  0.322
 
band     4 # energy    2.90442439 # occ.  2.00000000
 
ion      s     py     pz     px    dxy    dyz    dz2    dxz  x2-y2    tot
    1  0.000  0.000  0.098  0.098  0.002  0.002  0.001  0.000  0.000  0.202
    2  0.000  0.000  0.098  0.098  0.002  0.002  0.001  0.000  0.000  0.202
tot    0.000  0.000  0.197  0.197  0.004  0.004  0.002  0.000  0.001  0.403
 
band     5 # energy    6.50737105 # occ.  0.00000000
 
ion      s     py     pz     px    dxy    dyz    dz2    dxz  x2-y2    tot
    1  0.055  0.037  0.001  0.001  0.000  0.000  0.005  0.025  0.016  0.140
    2  0.055  0.037  0.001  0.001  0.000  0.000  0.005  0.025  0.016  0.140
tot    0.109  0.075  0.001  0.001  0.000  0.000  0.011  0.050  0.032  0.279
 
band     6 # energy    8.63258178 # occ.  0.00000000
 
ion      s     py     pz     px    dxy    dyz    dz2    dxz  x2-y2    tot
    1  0.032  0.018  0.031  0.031  0.002  0.002  0.005  0.032  0.015  0.167
    2  0.032  0.018  0.031  0.031  0.002  0.002  0.005  0.032  0.015  0.167
tot    0.065  0.036  0.063  0.063  0.003  0.003  0.010  0.064  0.029  0.335
 
band     7 # energy   13.57958967 # occ.  0.00000000
 
ion      s     py     pz     px    dxy    dyz    dz2    dxz  x2-y2    tot
    1  0.000  0.000  0.084  0.084  0.016  0.016  0.021  0.000  0.007  0.229
    2  0.000  0.000  0.084  0.084  0.016  0.016  0.021  0.000  0.007  0.229
tot    0.000  0.000  0.169  0.169  0.032  0.032  0.042  0.000  0.014  0.457
 
band     8 # energy   14.15554904 # occ.  0.00000000
 
ion      s     py     pz     px    dxy    dyz    dz2    dxz  x2-y2    tot
    1  0.027  0.100  0.000  0.000  0.052  0.052  0.000  0.006  0.000  0.238
    2  0.035  0.089  0.001  0.001  0.048  0.048  0.000  0.006  0.000  0.228
tot    0.062  0.190  0.001  0.001  0.100  0.100  0.000  0.012  0.000  0.466
 

 k-point    10 :   -0.40000000 0.40000000 0.20000000     weight = 0.19200000

band     1 # energy   -3.32912703 # occ.  2.00000000
 
ion      s     py     pz     px    dxy    dyz    dz2    dxz  x2-y2    tot
    1  0.203  0.022  0.005  0.002  0.001  0.000  0.000  0.002  0.000  0.235
    2  0.203  0.022  0.005  0.002  0.001  0.000  0.000  0.002  0.000  0.235
tot    0.405  0.043  0.011  0.004  0.003  0.000  0.000  0.003  0.000  0.470
 
band     2 # energy   -1.07962378 # occ.  2.00000000
 
ion      s     py     pz     px    dxy    dyz    dz2    dxz  x2-y2    tot
    1  0.185  0.031  0.025  0.003  0.002  0.000  0.000  0.004  0.000  0.250
    2  0.185  0.031  0.025  0.003  0.002  0.000  0.000  0.004  0.000  0.250
tot    0.370  0.062  0.050  0.006  0.003  0.001  0.000  0.009  0.000  0.500
 
band     3 # energy    1.49877852 # occ.  2.00000000
 
ion      s     py     pz     px    dxy    dyz    dz2    dxz  x2-y2    tot
    1  0.007  0.026  0.071  0.057  0.001  0.000  0.002  0.001  0.000  0.166
    2  0.007  0.026  0.071  0.057  0.001  0.000  0.002  0.001  0.000  0.166
tot    0.014  0.053  0.142  0.113  0.003  0.000  0.005  0.001  0.001  0.331
 
band     4 # energy    2.48688428 # occ.  2.00000000
 
ion      s     py     pz     px    dxy    dyz    dz2    dxz  x2-y2    tot
    1  0.002  0.050  0.038  0.083  0.000  0.003  0.002  0.000  0.002  0.180
    2  0.002  0.050  0.038  0.083  0.000  0.003  0.002  0.000  0.002  0.180
tot    0.003  0.101  0.076  0.165  0.000  0.006  0.005  0.001  0.004  0.361
 
band     5 # energy    8.87655909 # occ.  0.00000000
 
ion      s     py     pz     px    dxy    dyz    dz2    dxz  x2-y2    tot
    1  0.029  0.028  0.027  0.042  0.004  0.001  0.002  0.033  0.013  0.179
    2  0.029  0.028  0.027  0.042  0.004  0.001  0.002  0.033  0.013  0.179
tot    0.058  0.056  0.054  0.085  0.008  0.001  0.004  0.066  0.026  0.359
 
band     6 # energy    9.25145521 # occ.  0.00000000
 
ion      s     py     pz     px    dxy    dyz    dz2    dxz  x2-y2    tot
    1  0.008  0.004  0.002  0.068  0.008  0.003  0.014  0.027  0.014  0.148
    2  0.008  0.004  0.002  0.068  0.008  0.003  0.014  0.027  0.014  0.148
tot    0.016  0.008  0.004  0.136  0.016  0.006  0.027  0.055  0.027  0.296
 
band     7 # energy    9.91519000 # occ.  0.00000000
 
ion      s     py     pz     px    dxy    dyz    dz2    dxz  x2-y2    tot
    1  0.072  0.034  0.051  0.012  0.024  0.000  0.009  0.002  0.011  0.216
    2  0.072  0.034  0.051  0.012  0.024  0.000  0.009  0.002  0.011  0.216
tot    0.144  0.068  0.103  0.024  0.048  0.001  0.019  0.004  0.021  0.431
 
band     8 # energy   13.27084468 # occ.  0.00000000
 
ion      s     py     pz     px    dxy    dyz    dz2    dxz  x2-y2    tot
    1  0.020  0.050  0.024  0.040  0.049  0.002  0.020  0.000  0.002  0.208
    2  0.020  0.050  0.024  0.040  0.049  0.002  0.020  0.000  0.002  0.208
tot    0.041  0.099  0.048  0.081  0.097  0.005  0.041  0.000  0.005  0.417
 
