<?xml version="1.0" encoding="ISO-8859-1"?>
<modeling>
 <generator>
  <i name="program" type="string">vasp </i>
  <i name="version" type="string">6.3.2  </i>
  <i name="subversion" type="string">27Jun22 (build Dec 02 2024 22:47:12) complex                          parallel </i>
  <i name="platform" type="string">LinuxIFC </i>
  <i name="date" type="string">2024 12 20 </i>
  <i name="time" type="string">11:42:03 </i>
 </generator>
 <incar>
  <i type="string" name="SYSTEM">Si DFT Virtual Orbitals</i>
  <i type="string" name="PREC">Accurate</i>
  <i type="int" name="IBRION">    -1</i>
  <i type="int" name="NSW">     0</i>
  <i name="ENCUT">    500.00000000</i>
  <i type="int" name="NEDOS">  2000</i>
  <i type="int" name="ISMEAR">     0</i>
  <i name="SIGMA">      0.10000000</i>
  <i type="int" name="LORBIT">    11</i>
  <i type="logical" name="LDAU"> F  </i>
 </incar>
 <primitive_cell>
  <structure name="primitive_cell" >
   <crystal>
    <varray name="basis" >
     <v>       2.71500000       2.71500000       0.00000000 </v>
     <v>       0.00000000       2.71500000       2.71500000 </v>
     <v>       2.71500000       0.00000000       2.71500000 </v>
    </varray>
    <i name="volume">     40.02575175 </i>
    <varray name="rec_basis" >
     <v>       0.18416206       0.18416206      -0.18416206 </v>
     <v>      -0.18416206       0.18416206       0.18416206 </v>
     <v>       0.18416206      -0.18416206       0.18416206 </v>
    </varray>
   </crystal>
   <varray name="positions" >
    <v>       0.00000000       0.00000000       0.00000000 </v>
    <v>       0.25000000       0.25000000       0.25000000 </v>
   </varray>
  </structure>
  <varray name="primitive_index" >
   <v type="int" >        1 </v>
   <v type="int" >        2 </v>
  </varray>
 </primitive_cell>
 <kpoints>
  <generation param="Gamma">
   <v type="int" name="divisions">       5        5        5 </v>
   <v name="usershift">      0.00000000       0.00000000       0.00000000 </v>
   <v name="genvec1">      0.20000000       0.00000000       0.00000000 </v>
   <v name="genvec2">      0.00000000       0.20000000      -0.00000000 </v>
   <v name="genvec3">     -0.00000000      -0.00000000       0.20000000 </v>
   <v name="shift">      0.00000000       0.00000000       0.00000000 </v>
  </generation>
  <varray name="kpointlist" >
   <v>       0.00000000       0.00000000       0.00000000 </v>
   <v>       0.20000000       0.00000000      -0.00000000 </v>
   <v>       0.40000000      -0.00000000      -0.00000000 </v>
   <v>       0.20000000       0.20000000       0.00000000 </v>
   <v>       0.40000000       0.20000000      -0.00000000 </v>
   <v>      -0.40000000       0.20000000      -0.00000000 </v>
   <v>      -0.20000000       0.20000000       0.00000000 </v>
   <v>       0.40000000       0.40000000       0.00000000 </v>
   <v>      -0.40000000       0.40000000      -0.00000000 </v>
   <v>      -0.40000000       0.40000000       0.20000000 </v>
  </varray>
  <varray name="weights" >
   <v>       0.00800000 </v>
   <v>       0.06400000 </v>
   <v>       0.06400000 </v>
   <v>       0.04800000 </v>
   <v>       0.19200000 </v>
   <v>       0.19200000 </v>
   <v>       0.09600000 </v>
   <v>       0.04800000 </v>
   <v>       0.09600000 </v>
   <v>       0.19200000 </v>
  </varray>
 </kpoints>
 <parameters>
  <separator name="general" >
   <i type="string" name="SYSTEM">Si DFT Virtual Orbitals</i>
   <i type="logical" name="LCOMPAT"> F  </i>
  </separator>
  <separator name="electronic" >
   <i type="string" name="PREC">accura</i>
   <i name="ENMAX">    500.00000000</i>
   <i name="ENAUG">    412.95200000</i>
   <i name="EDIFF">      0.00010000</i>
   <i type="int" name="IALGO">    38</i>
   <i type="int" name="IWAVPR">    10</i>
   <i type="int" name="NBANDS">     8</i>
   <i type="int" name="NBANDSLOW">    -1</i>
   <i type="int" name="NBANDSHIGH">    -1</i>
   <i name="NELECT">      8.00000000</i>
   <i type="int" name="TURBO">     0</i>
   <i type="int" name="IRESTART">     0</i>
   <i type="int" name="NREBOOT">     0</i>
   <i type="int" name="NMIN">     0</i>
   <i name="EREF">      0.00000000</i>
   <separator name="electronic smearing" >
    <i type="int" name="ISMEAR">     0</i>
    <i name="SIGMA">      0.10000000</i>
    <i name="KSPACING">      0.50000000</i>
    <i type="logical" name="KGAMMA"> T  </i>
    <i type="logical" name="KBLOWUP"> T  </i>
   </separator>
   <separator name="electronic projectors" >
    <i type="logical" name="LREAL"> F  </i>
    <v name="ROPT">      0.00000000</v>
    <i type="int" name="LMAXPAW">  -100</i>
    <i type="int" name="LMAXMIX">     2</i>
    <i type="logical" name="NLSPLINE"> F  </i>
   </separator>
   <separator name="electronic startup" >
    <i type="int" name="ISTART">     1</i>
    <i type="int" name="ICHARG">     0</i>
    <i type="int" name="INIWAV">     1</i>
   </separator>
   <separator name="electronic spin" >
    <i type="int" name="ISPIN">     1</i>
    <i type="logical" name="LNONCOLLINEAR"> F  </i>
    <v name="MAGMOM">      1.00000000      1.00000000</v>
    <i name="NUPDOWN">     -1.00000000</i>
    <i type="logical" name="LSORBIT"> F  </i>
    <v name="SAXIS">      0.00000000      0.00000000      1.00000000</v>
    <i type="logical" name="LSPIRAL"> F  </i>
    <v name="QSPIRAL">      0.00000000      0.00000000      0.00000000</v>
    <i type="logical" name="LZEROZ"> F  </i>
   </separator>
   <separator name="electronic exchange-correlation" >
    <i type="logical" name="LASPH"> F  </i>
    <i type="logical" name="LMETAGGA"> F  </i>
   </separator>
   <separator name="electronic convergence" >
    <i type="int" name="NELM">    60</i>
    <i type="int" name="NELMDL">     0</i>
    <i type="int" name="NELMIN">     2</i>
    <i name="ENINI">    500.00000000</i>
    <separator name="electronic convergence detail" >
     <i type="logical" name="LDIAG"> T  </i>
     <i type="logical" name="LSUBROT"> F  </i>
     <i name="WEIMIN">      0.00000000</i>
     <i name="EBREAK">      0.00000313</i>
     <i name="DEPER">      0.30000000</i>
     <i type="int" name="NRMM">     4</i>
     <i name="TIME">      0.40000000</i>
    </separator>
   </separator>
   <separator name="electronic mixer" >
    <i name="AMIX">      0.40000000</i>
    <i name="BMIX">      1.00000000</i>
    <i name="AMIN">      0.10000000</i>
    <i name="AMIX_MAG">      1.60000000</i>
    <i name="BMIX_MAG">      1.00000000</i>
    <separator name="electronic mixer details" >
     <i type="int" name="IMIX">     4</i>
     <i type="logical" name="MIXFIRST"> F  </i>
     <i type="int" name="MAXMIX">   -45</i>
     <i name="WC">    100.00000000</i>
     <i type="int" name="INIMIX">     1</i>
     <i type="int" name="MIXPRE">     1</i>
     <i type="int" name="MREMOVE">     5</i>
    </separator>
   </separator>
   <separator name="electronic dipolcorrection" >
    <i type="logical" name="LDIPOL"> F  </i>
    <i type="logical" name="LMONO"> F  </i>
    <i type="int" name="IDIPOL">     0</i>
    <i name="EPSILON">      1.00000000</i>
    <v name="DIPOL">   -100.00000000   -100.00000000   -100.00000000</v>
    <i name="EFIELD">      0.00000000</i>
   </separator>
  </separator>
  <separator name="grids" >
   <i type="int" name="NGX">    28</i>
   <i type="int" name="NGY">    28</i>
   <i type="int" name="NGZ">    28</i>
   <i type="int" name="NGXF">    56</i>
   <i type="int" name="NGYF">    56</i>
   <i type="int" name="NGZF">    56</i>
   <i type="logical" name="ADDGRID"> F  </i>
  </separator>
  <separator name="ionic" >
   <i type="int" name="NSW">     0</i>
   <i type="int" name="IBRION">    -1</i>
   <i type="int" name="MDALGO">     0</i>
   <i type="int" name="ISIF">     2</i>
   <i name="PSTRESS">      0.00000000</i>
   <i name="EDIFFG">      0.00100000</i>
   <i type="int" name="NFREE">     0</i>
   <i name="POTIM">      0.50000000</i>
   <i name="SMASS">     -3.00000000</i>
   <i name="SCALEE">      1.00000000</i>
  </separator>
  <separator name="ionic md" >
   <i name="TEBEG">      0.00010000</i>
   <i name="TEEND">      0.00010000</i>
   <i type="int" name="NBLOCK">     1</i>
   <i type="int" name="KBLOCK">     1</i>
   <i type="int" name="NPACO">   256</i>
   <i name="APACO">     10.00000000</i>
  </separator>
  <separator name="symmetry" >
   <i type="int" name="ISYM">     2</i>
   <i name="SYMPREC">      0.00001000</i>
  </separator>
  <separator name="dos" >
   <i type="int" name="LORBIT">    11</i>
   <v name="RWIGS">     -1.00000000</v>
   <i type="int" name="NEDOS">  2000</i>
   <i name="EMIN">     10.00000000</i>
   <i name="EMAX">    -10.00000000</i>
   <i name="EFERMI">      0.00000000</i>
  </separator>
  <separator name="writing" >
   <i type="int" name="NWRITE">     2</i>
   <i type="logical" name="LWAVE"> T  </i>
   <i type="logical" name="LDOWNSAMPLE"> F  </i>
   <i type="logical" name="LCHARG"> T  </i>
   <i type="logical" name="LPARD"> F  </i>
   <i type="logical" name="LVTOT"> F  </i>
   <i type="logical" name="LVHAR"> F  </i>
   <i type="logical" name="LELF"> F  </i>
   <i type="logical" name="LOPTICS"> F  </i>
   <v name="STM">      0.00000000      0.00000000      0.00000000      0.00000000      0.00000000      0.00000000      0.00000000</v>
  </separator>
  <separator name="performance" >
   <i type="int" name="NPAR">     1</i>
   <i type="int" name="NSIM">     4</i>
   <i type="int" name="NBLK">    -1</i>
   <i type="logical" name="LPLANE"> T  </i>
   <i type="logical" name="LSCALAPACK"> T  </i>
   <i type="logical" name="LSCAAWARE"> F  </i>
   <i type="logical" name="LSCALU"> F  </i>
   <i type="logical" name="LASYNC"> F  </i>
   <i type="logical" name="LORBITALREAL"> F  </i>
  </separator>
  <separator name="miscellaneous" >
   <i type="int" name="IDIOT">     3</i>
   <i type="int" name="PHON_NSTRUCT">    -1</i>
   <i type="logical" name="LMUSIC"> F  </i>
   <v name="POMASS">     28.08500000</v>
   <v name="DARWINR">      0.00000000</v>
   <v name="DARWINV">      1.00000000</v>
   <i type="logical" name="LCORR"> T  </i>
  </separator>
  <i type="logical" name="GGA_COMPAT"> T  </i>
  <i type="logical" name="LBERRY"> F  </i>
  <i type="int" name="ICORELEVEL">     0</i>
  <i type="logical" name="LDAU"> F  </i>
  <i type="int" name="I_CONSTRAINED_M">     0</i>
  <separator name="electronic exchange-correlation" >
   <i type="string" name="GGA">--</i>
   <i type="int" name="VOSKOWN">     0</i>
   <i type="logical" name="LHFCALC"> F  </i>
   <i type="string" name="PRECFOCK"></i>
   <i type="logical" name="LSYMGRAD"> F  </i>
   <i type="logical" name="LHFONE"> F  </i>
   <i type="logical" name="LRHFCALC"> F  </i>
   <i type="logical" name="LTHOMAS"> F  </i>
   <i type="logical" name="LMODELHF"> F  </i>
   <i type="logical" name="LFOCKACE"> F  </i>
   <i name="ENCUT4O">     -1.00000000</i>
   <i type="int" name="EXXOEP">     0</i>
   <i type="int" name="FOURORBIT">     0</i>
   <i name="AEXX">      0.00000000</i>
   <i name="HFALPHA">      0.00000000</i>
   <i name="MCALPHA">      0.00000000</i>
   <i name="ALDAX">      1.00000000</i>
   <i name="AGGAX">      1.00000000</i>
   <i name="ALDAC">      1.00000000</i>
   <i name="AGGAC">      1.00000000</i>
   <i type="int" name="NKREDX">     1</i>
   <i type="int" name="NKREDY">     1</i>
   <i type="int" name="NKREDZ">     1</i>
   <i type="logical" name="SHIFTRED"> F  </i>
   <i type="logical" name="ODDONLY"> F  </i>
   <i type="logical" name="EVENONLY"> F  </i>
   <i type="int" name="LMAXFOCK">     0</i>
   <i type="int" name="NMAXFOCKAE">     0</i>
   <i type="logical" name="LFOCKAEDFT"> F  </i>
   <i name="HFSCREEN">      0.00000000</i>
   <i name="HFSCREENC">      0.00000000</i>
   <i type="int" name="NBANDSGWLOW">     0</i>
  </separator>
  <separator name="vdW DFT" >
   <i type="logical" name="LUSE_VDW"> F  </i>
   <i name="Zab_VDW">     -0.84910000</i>
   <i name="PARAM1">      0.12340000</i>
   <i name="PARAM2">      1.00000000</i>
   <i name="PARAM3">      0.00000000</i>
  </separator>
  <separator name="model GW" >
   <i type="int" name="MODEL_GW">     0</i>
   <i name="MODEL_EPS0">     12.00772552</i>
   <i name="MODEL_ALPHA">      1.00000000</i>
  </separator>
  <separator name="linear response parameters" >
   <i type="logical" name="LEPSILON"> F  </i>
   <i type="logical" name="LRPA"> F  </i>
   <i type="logical" name="LNABLA"> F  </i>
   <i type="logical" name="LVEL"> F  </i>
   <i name="CSHIFT">      0.10000000</i>
   <i name="OMEGAMAX">     -1.00000000</i>
   <i name="DEG_THRESHOLD">      0.00200000</i>
   <i name="RTIME">     -0.10000000</i>
   <i name="WPLASMAI">      0.00000000</i>
   <v name="DFIELD">      0.00000000      0.00000000      0.00000000</v>
   <v name="WPLASMA">      0.00000000      0.00000000      0.00000000      0.00000000      0.00000000      0.00000000      0.00000000      0.00000000      0.00000000</v>
  </separator>
  <separator name="orbital magnetization" >
   <i type="logical" name="NUCIND"> F  </i>
   <v name="MAGPOS">      0.00000000      0.00000000      0.00000000</v>
   <i type="logical" name="LNICSALL"> T  </i>
   <i type="logical" name="ORBITALMAG"> F  </i>
   <i type="logical" name="LMAGBLOCH"> F  </i>
   <i type="logical" name="LCHIMAG"> F  </i>
   <i type="logical" name="LGAUGE"> T  </i>
   <i type="int" name="MAGATOM">     0</i>
   <v name="MAGDIPOL">      0.00000000      0.00000000      0.00000000</v>
   <v name="AVECCONST">      0.00000000      0.00000000      0.00000000</v>
  </separator>
  <separator name="response functions" >
   <i type="logical" name="LFINITE_TEMPERATURE"> F  </i>
   <i type="logical" name="LADDER"> F  </i>
   <i type="logical" name="LRPAFORCE"> F  </i>
   <i type="logical" name="LFXC"> F  </i>
   <i type="logical" name="LHARTREE"> T  </i>
   <i type="int" name="IBSE">     0</i>
   <v type="int" name="KPOINT">    -1     0     0     0</v>
   <i type="logical" name="LTCTC"> F  </i>
   <i type="logical" name="LTCTE"> F  </i>
   <i type="logical" name="LTETE"> F  </i>
   <i type="logical" name="LTRIPLET"> F  </i>
   <i type="logical" name="LFXCEPS"> F  </i>
   <i type="logical" name="LFXHEG"> F  </i>
   <i type="int" name="NATURALO">     2</i>
   <i type="logical" name="LHOLEGF"> F  </i>
   <i type="logical" name="L2ORDER"> F  </i>
   <i type="logical" name="LDMP1"> F  </i>
   <i type="logical" name="LMP2LT"> F  </i>
   <i type="logical" name="LSMP2LT"> F  </i>
   <i type="logical" name="LGWLF"> F  </i>
   <i name="ENCUTGW">     -2.00000000</i>
   <i name="ENCUTGWSOFT">     -2.00000000</i>
   <i name="ENCUTLF">     -1.00000000</i>
   <i type="logical" name="LESF_SPLINES"> F  </i>
   <i type="int" name="LMAXMP2">    -1</i>
   <i name="SCISSOR">      0.00000000</i>
   <i type="int" name="NOMEGA">     0</i>
   <i type="int" name="NOMEGAR">     0</i>
   <i type="int" name="NBANDSGW">    -1</i>
   <i type="int" name="NBANDSO">    -1</i>
   <i type="int" name="NBANDSV">    -1</i>
   <i type="int" name="NELMGW">     1</i>
   <i type="int" name="NELMHF">     1</i>
   <i type="int" name="DIM">     3</i>
   <i type="int" name="IESPILON">     4</i>
   <i type="int" name="ANTIRES">     0</i>
   <i name="OMEGAMAX">    -30.00000000</i>
   <i name="OMEGAMIN">    -30.00000000</i>
   <i name="OMEGATL">   -200.00000000</i>
   <i type="int" name="OMEGAGRID">     0</i>
   <i name="CSHIFT">     -0.10000000</i>
   <i type="logical" name="LSELFENERGY"> F  </i>
   <i type="logical" name="LSPECTRAL"> F  </i>
   <i type="logical" name="LSPECTRALGW"> F  </i>
   <i type="logical" name="LSINGLES"> F  </i>
   <i type="logical" name="LFERMIGW"> F  </i>
   <i type="logical" name="ODDONLYGW"> F  </i>
   <i type="logical" name="EVENONLYGW"> F  </i>
   <i type="int" name="NKREDLFX">     1</i>
   <i type="int" name="NKREDLFY">     1</i>
   <i type="int" name="NKREDLFZ">     1</i>
   <i type="int" name="MAXMEM">  2800</i>
   <i type="int" name="TELESCOPE">     0</i>
   <i type="int" name="NTAUPAR">    -1</i>
   <i type="int" name="NOMEGAPAR">    -1</i>
   <i name="DAMP_NEWTON">      0.80000001</i>
   <i name="LAMBDA">      1.00000000</i>
  </separator>
  <separator name="External order field" >
   <i name="OFIELD_KAPPA">      0.00000000</i>
   <v name="OFIELD_K">      0.00000000      0.00000000      0.00000000</v>
   <i name="OFIELD_Q6_NEAR">      0.00000000</i>
   <i name="OFIELD_Q6_FAR">      0.00000000</i>
   <i name="OFIELD_A">      0.00000000</i>
  </separator>
  <separator name="optional k-points parameters" >
   <i type="int" name="KPOINTS_OPT_MODE">     1</i>
   <i type="logical" name="LKPOINTS_OPT"> F  </i>
  </separator>
 </parameters>
 <atominfo>
  <atoms>       2 </atoms>
  <types>       1 </types>
  <array name="atoms" >
   <dimension dim="1">ion</dimension>
   <field type="string">element</field>
   <field type="int">atomtype</field>
   <set>
    <rc><c>Si</c><c>   1</c></rc>
    <rc><c>Si</c><c>   1</c></rc>
   </set>
  </array>
  <array name="atomtypes" >
   <dimension dim="1">type</dimension>
   <field type="int">atomspertype</field>
   <field type="string">element</field>
   <field>mass</field>
   <field>valence</field>
   <field type="string">pseudopotential</field>
   <set>
    <rc><c>   2</c><c>Si</c><c>     28.08500000</c><c>      4.00000000</c><c>  PAW_PBE Si_GW 04May2012               </c></rc>
   </set>
  </array>
 </atominfo>
 <structure name="initialpos" >
  <crystal>
   <varray name="basis" >
    <v>       2.71500000       2.71500000       0.00000000 </v>
    <v>       0.00000000       2.71500000       2.71500000 </v>
    <v>       2.71500000       0.00000000       2.71500000 </v>
   </varray>
   <i name="volume">     40.02575175 </i>
   <varray name="rec_basis" >
    <v>       0.18416206       0.18416206      -0.18416206 </v>
    <v>      -0.18416206       0.18416206       0.18416206 </v>
    <v>       0.18416206      -0.18416206       0.18416206 </v>
   </varray>
  </crystal>
  <varray name="positions" >
   <v>       0.00000000       0.00000000       0.00000000 </v>
   <v>       0.25000000       0.25000000       0.25000000 </v>
  </varray>
 </structure>
 <calculation>
  <scstep>
   <time name="dav">    0.05    0.05</time>
   <time name="total">    0.14    0.16</time>
   <energy>
    <i name="alphaZ">      6.08881246 </i>
    <i name="ewald">   -228.56352493 </i>
    <i name="hartreedc">    -15.06340428 </i>
    <i name="XCdc">    -18.19815590 </i>
    <i name="pawpsdc">    258.99924098 </i>
    <i name="pawaedc">   -223.56626076 </i>
    <i name="eentropy">     -0.00000100 </i>
    <i name="bandstr">      3.39474506 </i>
    <i name="atom">    206.13251344 </i>
    <i name="e_fr_energy">    -10.77603492 </i>
    <i name="e_wo_entrp">    -10.77603392 </i>
    <i name="e_0_energy">    -10.77603442 </i>
   </energy>
  </scstep>
  <scstep>
   <time name="dav">    0.04    0.04</time>
   <time name="total">    0.09    0.09</time>
   <energy>
    <i name="alphaZ">      6.08881246 </i>
    <i name="ewald">   -228.56352493 </i>
    <i name="hartreedc">    -15.06340579 </i>
    <i name="XCdc">    -18.19815606 </i>
    <i name="pawpsdc">    258.99922530 </i>
    <i name="pawaedc">   -223.56624527 </i>
    <i name="eentropy">     -0.00000100 </i>
    <i name="bandstr">      3.39474692 </i>
    <i name="atom">    206.13251344 </i>
    <i name="e_fr_energy">    -10.77603492 </i>
    <i name="e_wo_entrp">    -10.77603392 </i>
    <i name="e_0_energy">    -10.77603442 </i>
   </energy>
  </scstep>
  <structure>
   <crystal>
    <varray name="basis" >
     <v>       2.71500000       2.71500000       0.00000000 </v>
     <v>       0.00000000       2.71500000       2.71500000 </v>
     <v>       2.71500000       0.00000000       2.71500000 </v>
    </varray>
    <i name="volume">     40.02575175 </i>
    <varray name="rec_basis" >
     <v>       0.18416206       0.18416206      -0.18416206 </v>
     <v>      -0.18416206       0.18416206       0.18416206 </v>
     <v>       0.18416206      -0.18416206       0.18416206 </v>
    </varray>
   </crystal>
   <varray name="positions" >
    <v>       0.00000000       0.00000000       0.00000000 </v>
    <v>       0.25000000       0.25000000       0.25000000 </v>
   </varray>
  </structure>
  <varray name="forces" >
   <v>       0.00000000       0.00000000       0.00000000 </v>
   <v>      -0.00000000      -0.00000000      -0.00000000 </v>
  </varray>
  <varray name="stress" >
   <v>      22.54226871       0.00000000      -0.00000000 </v>
   <v>       0.00000000      22.54226871       0.00000000 </v>
   <v>      -0.00000000       0.00000000      22.54226871 </v>
  </varray>
  <energy>
   <i name="e_fr_energy">    -10.77603492 </i>
   <i name="e_wo_entrp">    -10.77603392 </i>
   <i name="e_0_energy">    -10.77603442 </i>
  </energy>
  <time name="totalsc">    0.60    0.73</time>
  <eigenvalues>
   <array>
    <dimension dim="1">band</dimension>
    <dimension dim="2">kpoint</dimension>
    <dimension dim="3">spin</dimension>
    <field>eigene</field>
    <field>occ</field>
    <set>
     <set comment="spin 1">
      <set comment="kpoint 1">
       <r>   -6.4825    1.0000 </r>
       <r>    5.4843    1.0000 </r>
       <r>    5.4843    1.0000 </r>
       <r>    5.4843    1.0000 </r>
       <r>    8.0417    0.0000 </r>
       <r>    8.0417    0.0000 </r>
       <r>    8.0417    0.0000 </r>
       <r>    8.8529    0.0000 </r>
      </set>
      <set comment="kpoint 2">
       <r>   -5.9649    1.0000 </r>
       <r>    2.4730    1.0000 </r>
       <r>    4.9035    1.0000 </r>
       <r>    4.9035    1.0000 </r>
       <r>    7.7021    0.0000 </r>
       <r>    8.8431    0.0000 </r>
       <r>    8.8431    0.0000 </r>
       <r>   11.5389    0.0000 </r>
      </set>
      <set comment="kpoint 3">
       <r>   -4.6015    1.0000 </r>
       <r>   -0.7922    1.0000 </r>
       <r>    4.3555    1.0000 </r>
       <r>    4.3555    1.0000 </r>
       <r>    7.1020    0.0000 </r>
       <r>    8.8938    0.0000 </r>
       <r>    8.8938    0.0000 </r>
       <r>   13.3227    0.0000 </r>
      </set>
      <set comment="kpoint 4">
       <r>   -5.7867    1.0000 </r>
       <r>    2.8607    1.0000 </r>
       <r>    3.9930    1.0000 </r>
       <r>    3.9930    1.0000 </r>
       <r>    6.9404    0.0000 </r>
       <r>    9.3694    0.0000 </r>
       <r>   10.3764    0.0000 </r>
       <r>   10.3764    0.0000 </r>
      </set>
      <set comment="kpoint 5">
       <r>   -4.6449    1.0000 </r>
       <r>    0.1731    1.0000 </r>
       <r>    2.8565    1.0000 </r>
       <r>    3.4846    1.0000 </r>
       <r>    7.2536    0.0000 </r>
       <r>    9.5674    0.0000 </r>
       <r>   10.4180    0.0000 </r>
       <r>   10.9172    0.0000 </r>
      </set>
      <set comment="kpoint 6">
       <r>   -3.7598    1.0000 </r>
       <r>   -1.2218    1.0000 </r>
       <r>    2.0469    1.0000 </r>
       <r>    3.7676    1.0000 </r>
       <r>    7.5366    0.0000 </r>
       <r>   10.0896    0.0000 </r>
       <r>   10.2814    0.0000 </r>
       <r>   13.0520    0.0000 </r>
      </set>
      <set comment="kpoint 7">
       <r>   -5.1330    1.0000 </r>
       <r>    1.0065    1.0000 </r>
       <r>    2.4786    1.0000 </r>
       <r>    4.6374    1.0000 </r>
       <r>    8.3735    0.0000 </r>
       <r>    9.4730    0.0000 </r>
       <r>    9.7957    0.0000 </r>
       <r>   11.2245    0.0000 </r>
      </set>
      <set comment="kpoint 8">
       <r>   -3.7689    1.0000 </r>
       <r>   -0.6959    1.0000 </r>
       <r>    2.7855    1.0000 </r>
       <r>    2.7855    1.0000 </r>
       <r>    6.0587    0.0000 </r>
       <r>    6.7887    0.0000 </r>
       <r>   13.9951    0.0000 </r>
       <r>   13.9951    0.0000 </r>
      </set>
      <set comment="kpoint 9">
       <r>   -2.5627    1.0000 </r>
       <r>   -1.9579    1.0000 </r>
       <r>    1.4137    1.0000 </r>
       <r>    2.9044    1.0000 </r>
       <r>    6.5074    0.0000 </r>
       <r>    8.6326    0.0000 </r>
       <r>   13.5796    0.0000 </r>
       <r>   14.1555    0.0000 </r>
      </set>
      <set comment="kpoint 10">
       <r>   -3.3291    1.0000 </r>
       <r>   -1.0796    1.0000 </r>
       <r>    1.4988    1.0000 </r>
       <r>    2.4869    1.0000 </r>
       <r>    8.8766    0.0000 </r>
       <r>    9.2515    0.0000 </r>
       <r>    9.9152    0.0000 </r>
       <r>   13.2708    0.0000 </r>
      </set>
     </set>
    </set>
   </array>
  </eigenvalues>
  <separator name="orbital magnetization" >
   <v name="MAGDIPOLOUT">      0.00000000      0.00000000      0.00000000</v>
  </separator>
  <dos>
   <i name="efermi">      5.76578944 </i>
   <total>
    <array>
     <dimension dim="1">gridpoints</dimension>
     <dimension dim="2">spin</dimension>
     <field>energy</field>
     <field>total</field>
     <field>integrated</field>
     <set>
      <set comment="spin 1">
       <r>    -7.5144     0.0000     0.0000 </r>
       <r>    -7.5030     0.0000     0.0000 </r>
       <r>    -7.4917     0.0000     0.0000 </r>
       <r>    -7.4803     0.0000     0.0000 </r>
       <r>    -7.4690     0.0000     0.0000 </r>
       <r>    -7.4576     0.0000     0.0000 </r>
       <r>    -7.4463     0.0000     0.0000 </r>
       <r>    -7.4349     0.0000     0.0000 </r>
       <r>    -7.4235     0.0000     0.0000 </r>
       <r>    -7.4122     0.0000     0.0000 </r>
       <r>    -7.4008     0.0000     0.0000 </r>
       <r>    -7.3895     0.0000     0.0000 </r>
       <r>    -7.3781     0.0000     0.0000 </r>
       <r>    -7.3668     0.0000     0.0000 </r>
       <r>    -7.3554     0.0000     0.0000 </r>
       <r>    -7.3441     0.0000     0.0000 </r>
       <r>    -7.3327     0.0000     0.0000 </r>
       <r>    -7.3213     0.0000     0.0000 </r>
       <r>    -7.3100     0.0000     0.0000 </r>
       <r>    -7.2986     0.0000     0.0000 </r>
       <r>    -7.2873     0.0000     0.0000 </r>
       <r>    -7.2759     0.0000     0.0000 </r>
       <r>    -7.2646     0.0000     0.0000 </r>
       <r>    -7.2532     0.0000     0.0000 </r>
       <r>    -7.2418     0.0000     0.0000 </r>
       <r>    -7.2305     0.0000     0.0000 </r>
       <r>    -7.2191     0.0000     0.0000 </r>
       <r>    -7.2078     0.0000     0.0000 </r>
       <r>    -7.1964     0.0000     0.0000 </r>
       <r>    -7.1851     0.0000     0.0000 </r>
       <r>    -7.1737     0.0000     0.0000 </r>
       <r>    -7.1623     0.0000     0.0000 </r>
       <r>    -7.1510     0.0000     0.0000 </r>
       <r>    -7.1396     0.0000     0.0000 </r>
       <r>    -7.1283     0.0000     0.0000 </r>
       <r>    -7.1169     0.0000     0.0000 </r>
       <r>    -7.1056     0.0000     0.0000 </r>
       <r>    -7.0942     0.0000     0.0000 </r>
       <r>    -7.0828     0.0000     0.0000 </r>
       <r>    -7.0715     0.0000     0.0000 </r>
       <r>    -7.0601     0.0000     0.0000 </r>
       <r>    -7.0488     0.0000     0.0000 </r>
       <r>    -7.0374     0.0000     0.0000 </r>
       <r>    -7.0261     0.0000     0.0000 </r>
       <r>    -7.0147     0.0000     0.0000 </r>
       <r>    -7.0034     0.0000     0.0000 </r>
       <r>    -6.9920     0.0000     0.0000 </r>
       <r>    -6.9806     0.0000     0.0000 </r>
       <r>    -6.9693     0.0000     0.0000 </r>
       <r>    -6.9579     0.0000     0.0000 </r>
       <r>    -6.9466     0.0000     0.0000 </r>
       <r>    -6.9352     0.0000     0.0000 </r>
       <r>    -6.9239     0.0000     0.0000 </r>
       <r>    -6.9125     0.0000     0.0000 </r>
       <r>    -6.9011     0.0000     0.0000 </r>
       <r>    -6.8898     0.0000     0.0000 </r>
       <r>    -6.8784     0.0000     0.0000 </r>
       <r>    -6.8671     0.0000     0.0000 </r>
       <r>    -6.8557     0.0000     0.0000 </r>
       <r>    -6.8444     0.0000     0.0000 </r>
       <r>    -6.8330     0.0000     0.0000 </r>
       <r>    -6.8216     0.0000     0.0000 </r>
       <r>    -6.8103     0.0000     0.0000 </r>
       <r>    -6.7989     0.0000     0.0000 </r>
       <r>    -6.7876     0.0000     0.0000 </r>
       <r>    -6.7762     0.0000     0.0000 </r>
       <r>    -6.7649     0.0000     0.0000 </r>
       <r>    -6.7535     0.0000     0.0000 </r>
       <r>    -6.7422     0.0001     0.0000 </r>
       <r>    -6.7308     0.0001     0.0000 </r>
       <r>    -6.7194     0.0003     0.0000 </r>
       <r>    -6.7081     0.0004     0.0000 </r>
       <r>    -6.6967     0.0007     0.0000 </r>
       <r>    -6.6854     0.0012     0.0000 </r>
       <r>    -6.6740     0.0019     0.0001 </r>
       <r>    -6.6627     0.0029     0.0001 </r>
       <r>    -6.6513     0.0043     0.0001 </r>
       <r>    -6.6399     0.0063     0.0002 </r>
       <r>    -6.6286     0.0091     0.0003 </r>
       <r>    -6.6172     0.0126     0.0005 </r>
       <r>    -6.6059     0.0171     0.0006 </r>
       <r>    -6.5945     0.0226     0.0009 </r>
       <r>    -6.5832     0.0292     0.0012 </r>
       <r>    -6.5718     0.0367     0.0017 </r>
       <r>    -6.5604     0.0449     0.0022 </r>
       <r>    -6.5491     0.0535     0.0028 </r>
       <r>    -6.5377     0.0623     0.0035 </r>
       <r>    -6.5264     0.0706     0.0043 </r>
       <r>    -6.5150     0.0780     0.0052 </r>
       <r>    -6.5037     0.0839     0.0061 </r>
       <r>    -6.4923     0.0880     0.0071 </r>
       <r>    -6.4809     0.0900     0.0081 </r>
       <r>    -6.4696     0.0897     0.0092 </r>
       <r>    -6.4582     0.0871     0.0101 </r>
       <r>    -6.4469     0.0825     0.0111 </r>
       <r>    -6.4355     0.0761     0.0119 </r>
       <r>    -6.4242     0.0684     0.0127 </r>
       <r>    -6.4128     0.0599     0.0134 </r>
       <r>    -6.4015     0.0512     0.0140 </r>
       <r>    -6.3901     0.0426     0.0145 </r>
       <r>    -6.3787     0.0345     0.0149 </r>
       <r>    -6.3674     0.0273     0.0152 </r>
       <r>    -6.3560     0.0210     0.0154 </r>
       <r>    -6.3447     0.0158     0.0156 </r>
       <r>    -6.3333     0.0116     0.0157 </r>
       <r>    -6.3220     0.0082     0.0158 </r>
       <r>    -6.3106     0.0057     0.0159 </r>
       <r>    -6.2992     0.0039     0.0159 </r>
       <r>    -6.2879     0.0026     0.0160 </r>
       <r>    -6.2765     0.0017     0.0160 </r>
       <r>    -6.2652     0.0011     0.0160 </r>
       <r>    -6.2538     0.0008     0.0160 </r>
       <r>    -6.2425     0.0006     0.0160 </r>
       <r>    -6.2311     0.0007     0.0160 </r>
       <r>    -6.2197     0.0009     0.0160 </r>
       <r>    -6.2084     0.0015     0.0160 </r>
       <r>    -6.1970     0.0026     0.0161 </r>
       <r>    -6.1857     0.0043     0.0161 </r>
       <r>    -6.1743     0.0071     0.0162 </r>
       <r>    -6.1630     0.0114     0.0163 </r>
       <r>    -6.1516     0.0179     0.0165 </r>
       <r>    -6.1403     0.0274     0.0168 </r>
       <r>    -6.1289     0.0407     0.0173 </r>
       <r>    -6.1175     0.0591     0.0180 </r>
       <r>    -6.1062     0.0835     0.0189 </r>
       <r>    -6.0948     0.1150     0.0202 </r>
       <r>    -6.0835     0.1545     0.0220 </r>
       <r>    -6.0721     0.2021     0.0243 </r>
       <r>    -6.0608     0.2579     0.0272 </r>
       <r>    -6.0494     0.3206     0.0308 </r>
       <r>    -6.0380     0.3885     0.0353 </r>
       <r>    -6.0267     0.4591     0.0405 </r>
       <r>    -6.0153     0.5289     0.0465 </r>
       <r>    -6.0040     0.5943     0.0532 </r>
       <r>    -5.9926     0.6514     0.0606 </r>
       <r>    -5.9813     0.6970     0.0685 </r>
       <r>    -5.9699     0.7285     0.0768 </r>
       <r>    -5.9585     0.7447     0.0853 </r>
       <r>    -5.9472     0.7455     0.0937 </r>
       <r>    -5.9358     0.7327     0.1021 </r>
       <r>    -5.9245     0.7092     0.1101 </r>
       <r>    -5.9131     0.6787     0.1178 </r>
       <r>    -5.9018     0.6455     0.1252 </r>
       <r>    -5.8904     0.6140     0.1321 </r>
       <r>    -5.8790     0.5876     0.1388 </r>
       <r>    -5.8677     0.5687     0.1453 </r>
       <r>    -5.8563     0.5584     0.1516 </r>
       <r>    -5.8450     0.5561     0.1579 </r>
       <r>    -5.8336     0.5602     0.1643 </r>
       <r>    -5.8223     0.5678     0.1707 </r>
       <r>    -5.8109     0.5754     0.1773 </r>
       <r>    -5.7996     0.5796     0.1838 </r>
       <r>    -5.7882     0.5773     0.1904 </r>
       <r>    -5.7768     0.5662     0.1968 </r>
       <r>    -5.7655     0.5452     0.2030 </r>
       <r>    -5.7541     0.5142     0.2089 </r>
       <r>    -5.7428     0.4742     0.2142 </r>
       <r>    -5.7314     0.4273     0.2191 </r>
       <r>    -5.7201     0.3757     0.2234 </r>
       <r>    -5.7087     0.3224     0.2270 </r>
       <r>    -5.6973     0.2697     0.2301 </r>
       <r>    -5.6860     0.2201     0.2326 </r>
       <r>    -5.6746     0.1750     0.2346 </r>
       <r>    -5.6633     0.1357     0.2361 </r>
       <r>    -5.6519     0.1026     0.2373 </r>
       <r>    -5.6406     0.0756     0.2381 </r>
       <r>    -5.6292     0.0542     0.2388 </r>
       <r>    -5.6178     0.0380     0.2392 </r>
       <r>    -5.6065     0.0259     0.2395 </r>
       <r>    -5.5951     0.0172     0.2397 </r>
       <r>    -5.5838     0.0111     0.2398 </r>
       <r>    -5.5724     0.0070     0.2399 </r>
       <r>    -5.5611     0.0043     0.2399 </r>
       <r>    -5.5497     0.0026     0.2400 </r>
       <r>    -5.5384     0.0015     0.2400 </r>
       <r>    -5.5270     0.0009     0.2400 </r>
       <r>    -5.5156     0.0005     0.2400 </r>
       <r>    -5.5043     0.0003     0.2400 </r>
       <r>    -5.4929     0.0001     0.2400 </r>
       <r>    -5.4816     0.0001     0.2400 </r>
       <r>    -5.4702     0.0000     0.2400 </r>
       <r>    -5.4589     0.0000     0.2400 </r>
       <r>    -5.4475     0.0000     0.2400 </r>
       <r>    -5.4361     0.0001     0.2400 </r>
       <r>    -5.4248     0.0002     0.2400 </r>
       <r>    -5.4134     0.0003     0.2400 </r>
       <r>    -5.4021     0.0006     0.2400 </r>
       <r>    -5.3907     0.0011     0.2400 </r>
       <r>    -5.3794     0.0019     0.2400 </r>
       <r>    -5.3680     0.0033     0.2401 </r>
       <r>    -5.3566     0.0057     0.2402 </r>
       <r>    -5.3453     0.0095     0.2403 </r>
       <r>    -5.3339     0.0153     0.2404 </r>
       <r>    -5.3226     0.0241     0.2407 </r>
       <r>    -5.3112     0.0370     0.2411 </r>
       <r>    -5.2999     0.0555     0.2418 </r>
       <r>    -5.2885     0.0810     0.2427 </r>
       <r>    -5.2771     0.1152     0.2440 </r>
       <r>    -5.2658     0.1597     0.2458 </r>
       <r>    -5.2544     0.2158     0.2482 </r>
       <r>    -5.2431     0.2842     0.2515 </r>
       <r>    -5.2317     0.3647     0.2556 </r>
       <r>    -5.2204     0.4562     0.2608 </r>
       <r>    -5.2090     0.5560     0.2671 </r>
       <r>    -5.1977     0.6606     0.2746 </r>
       <r>    -5.1863     0.7648     0.2833 </r>
       <r>    -5.1749     0.8630     0.2931 </r>
       <r>    -5.1636     0.9491     0.3039 </r>
       <r>    -5.1522     1.0172     0.3154 </r>
       <r>    -5.1409     1.0625     0.3275 </r>
       <r>    -5.1295     1.0816     0.3398 </r>
       <r>    -5.1182     1.0730     0.3520 </r>
       <r>    -5.1068     1.0375     0.3637 </r>
       <r>    -5.0954     0.9777     0.3749 </r>
       <r>    -5.0841     0.8979     0.3850 </r>
       <r>    -5.0727     0.8037     0.3942 </r>
       <r>    -5.0614     0.7011     0.4021 </r>
       <r>    -5.0500     0.5960     0.4089 </r>
       <r>    -5.0387     0.4938     0.4145 </r>
       <r>    -5.0273     0.3988     0.4190 </r>
       <r>    -5.0159     0.3138     0.4226 </r>
       <r>    -5.0046     0.2407     0.4253 </r>
       <r>    -4.9932     0.1799     0.4274 </r>
       <r>    -4.9819     0.1311     0.4289 </r>
       <r>    -4.9705     0.0931     0.4299 </r>
       <r>    -4.9592     0.0645     0.4307 </r>
       <r>    -4.9478     0.0436     0.4312 </r>
       <r>    -4.9365     0.0289     0.4315 </r>
       <r>    -4.9251     0.0189     0.4317 </r>
       <r>    -4.9137     0.0126     0.4318 </r>
       <r>    -4.9024     0.0092     0.4319 </r>
       <r>    -4.8910     0.0081     0.4320 </r>
       <r>    -4.8797     0.0094     0.4321 </r>
       <r>    -4.8683     0.0133     0.4323 </r>
       <r>    -4.8570     0.0206     0.4325 </r>
       <r>    -4.8456     0.0327     0.4329 </r>
       <r>    -4.8342     0.0513     0.4335 </r>
       <r>    -4.8229     0.0790     0.4344 </r>
       <r>    -4.8115     0.1188     0.4357 </r>
       <r>    -4.8002     0.1744     0.4377 </r>
       <r>    -4.7888     0.2495     0.4405 </r>
       <r>    -4.7775     0.3483     0.4445 </r>
       <r>    -4.7661     0.4741     0.4499 </r>
       <r>    -4.7547     0.6294     0.4570 </r>
       <r>    -4.7434     0.8150     0.4663 </r>
       <r>    -4.7320     1.0295     0.4780 </r>
       <r>    -4.7207     1.2685     0.4924 </r>
       <r>    -4.7093     1.5248     0.5097 </r>
       <r>    -4.6980     1.7884     0.5300 </r>
       <r>    -4.6866     2.0467     0.5533 </r>
       <r>    -4.6752     2.2856     0.5792 </r>
       <r>    -4.6639     2.4909     0.6075 </r>
       <r>    -4.6525     2.6495     0.6376 </r>
       <r>    -4.6412     2.7508     0.6688 </r>
       <r>    -4.6298     2.7879     0.7005 </r>
       <r>    -4.6185     2.7585     0.7318 </r>
       <r>    -4.6071     2.6648     0.7621 </r>
       <r>    -4.5958     2.5137     0.7906 </r>
       <r>    -4.5844     2.3154     0.8169 </r>
       <r>    -4.5730     2.0829     0.8406 </r>
       <r>    -4.5617     1.8300     0.8614 </r>
       <r>    -4.5503     1.5705     0.8792 </r>
       <r>    -4.5390     1.3165     0.8941 </r>
       <r>    -4.5276     1.0780     0.9064 </r>
       <r>    -4.5163     0.8623     0.9162 </r>
       <r>    -4.5049     0.6739     0.9238 </r>
       <r>    -4.4935     0.5144     0.9297 </r>
       <r>    -4.4822     0.3837     0.9340 </r>
       <r>    -4.4708     0.2796     0.9372 </r>
       <r>    -4.4595     0.1990     0.9395 </r>
       <r>    -4.4481     0.1384     0.9410 </r>
       <r>    -4.4368     0.0940     0.9421 </r>
       <r>    -4.4254     0.0624     0.9428 </r>
       <r>    -4.4140     0.0404     0.9433 </r>
       <r>    -4.4027     0.0256     0.9436 </r>
       <r>    -4.3913     0.0158     0.9437 </r>
       <r>    -4.3800     0.0096     0.9439 </r>
       <r>    -4.3686     0.0056     0.9439 </r>
       <r>    -4.3573     0.0032     0.9440 </r>
       <r>    -4.3459     0.0018     0.9440 </r>
       <r>    -4.3346     0.0010     0.9440 </r>
       <r>    -4.3232     0.0005     0.9440 </r>
       <r>    -4.3118     0.0003     0.9440 </r>
       <r>    -4.3005     0.0001     0.9440 </r>
       <r>    -4.2891     0.0001     0.9440 </r>
       <r>    -4.2778     0.0000     0.9440 </r>
       <r>    -4.2664     0.0000     0.9440 </r>
       <r>    -4.2551     0.0000     0.9440 </r>
       <r>    -4.2437     0.0000     0.9440 </r>
       <r>    -4.2323     0.0000     0.9440 </r>
       <r>    -4.2210     0.0000     0.9440 </r>
       <r>    -4.2096     0.0000     0.9440 </r>
       <r>    -4.1983     0.0000     0.9440 </r>
       <r>    -4.1869     0.0000     0.9440 </r>
       <r>    -4.1756     0.0000     0.9440 </r>
       <r>    -4.1642     0.0000     0.9440 </r>
       <r>    -4.1528     0.0000     0.9440 </r>
       <r>    -4.1415     0.0000     0.9440 </r>
       <r>    -4.1301     0.0000     0.9440 </r>
       <r>    -4.1188     0.0000     0.9440 </r>
       <r>    -4.1074     0.0000     0.9440 </r>
       <r>    -4.0961     0.0000     0.9440 </r>
       <r>    -4.0847     0.0001     0.9440 </r>
       <r>    -4.0733     0.0001     0.9440 </r>
       <r>    -4.0620     0.0002     0.9440 </r>
       <r>    -4.0506     0.0005     0.9440 </r>
       <r>    -4.0393     0.0009     0.9440 </r>
       <r>    -4.0279     0.0017     0.9440 </r>
       <r>    -4.0166     0.0031     0.9441 </r>
       <r>    -4.0052     0.0056     0.9441 </r>
       <r>    -3.9939     0.0097     0.9442 </r>
       <r>    -3.9825     0.0164     0.9444 </r>
       <r>    -3.9711     0.0269     0.9447 </r>
       <r>    -3.9598     0.0433     0.9452 </r>
       <r>    -3.9484     0.0677     0.9460 </r>
       <r>    -3.9371     0.1032     0.9472 </r>
       <r>    -3.9257     0.1535     0.9489 </r>
       <r>    -3.9144     0.2224     0.9514 </r>
       <r>    -3.9030     0.3141     0.9550 </r>
       <r>    -3.8916     0.4323     0.9599 </r>
       <r>    -3.8803     0.5800     0.9665 </r>
       <r>    -3.8689     0.7585     0.9751 </r>
       <r>    -3.8576     0.9666     0.9861 </r>
       <r>    -3.8462     1.2007     0.9997 </r>
       <r>    -3.8349     1.4537     1.0162 </r>
       <r>    -3.8235     1.7154     1.0357 </r>
       <r>    -3.8121     1.9730     1.0581 </r>
       <r>    -3.8008     2.2117     1.0832 </r>
       <r>    -3.7894     2.4164     1.1107 </r>
       <r>    -3.7781     2.5732     1.1399 </r>
       <r>    -3.7667     2.6707     1.1702 </r>
       <r>    -3.7554     2.7016     1.2009 </r>
       <r>    -3.7440     2.6636     1.2312 </r>
       <r>    -3.7327     2.5596     1.2602 </r>
       <r>    -3.7213     2.3974     1.2875 </r>
       <r>    -3.7099     2.1884     1.3123 </r>
       <r>    -3.6986     1.9471     1.3344 </r>
       <r>    -3.6872     1.6885     1.3536 </r>
       <r>    -3.6759     1.4271     1.3698 </r>
       <r>    -3.6645     1.1756     1.3832 </r>
       <r>    -3.6532     0.9438     1.3939 </r>
       <r>    -3.6418     0.7386     1.4023 </r>
       <r>    -3.6304     0.5634     1.4087 </r>
       <r>    -3.6191     0.4191     1.4134 </r>
       <r>    -3.6077     0.3040     1.4169 </r>
       <r>    -3.5964     0.2155     1.4193 </r>
       <r>    -3.5850     0.1498     1.4210 </r>
       <r>    -3.5737     0.1031     1.4222 </r>
       <r>    -3.5623     0.0719     1.4230 </r>
       <r>    -3.5509     0.0536     1.4236 </r>
       <r>    -3.5396     0.0460     1.4241 </r>
       <r>    -3.5282     0.0484     1.4247 </r>
       <r>    -3.5169     0.0609     1.4254 </r>
       <r>    -3.5055     0.0845     1.4264 </r>
       <r>    -3.4942     0.1211     1.4277 </r>
       <r>    -3.4828     0.1733     1.4297 </r>
       <r>    -3.4714     0.2441     1.4325 </r>
       <r>    -3.4601     0.3363     1.4363 </r>
       <r>    -3.4487     0.4521     1.4414 </r>
       <r>    -3.4374     0.5927     1.4482 </r>
       <r>    -3.4260     0.7575     1.4568 </r>
       <r>    -3.4147     0.9435     1.4675 </r>
       <r>    -3.4033     1.1453     1.4805 </r>
       <r>    -3.3920     1.3550     1.4959 </r>
       <r>    -3.3806     1.5623     1.5136 </r>
       <r>    -3.3692     1.7556     1.5335 </r>
       <r>    -3.3579     1.9227     1.5554 </r>
       <r>    -3.3465     2.0522     1.5787 </r>
       <r>    -3.3352     2.1347     1.6029 </r>
       <r>    -3.3238     2.1641     1.6275 </r>
       <r>    -3.3125     2.1382     1.6518 </r>
       <r>    -3.3011     2.0589     1.6752 </r>
       <r>    -3.2897     1.9322     1.6971 </r>
       <r>    -3.2784     1.7672     1.7172 </r>
       <r>    -3.2670     1.5752     1.7351 </r>
       <r>    -3.2557     1.3684     1.7506 </r>
       <r>    -3.2443     1.1586     1.7638 </r>
       <r>    -3.2330     0.9560     1.7746 </r>
       <r>    -3.2216     0.7687     1.7834 </r>
       <r>    -3.2102     0.6025     1.7902 </r>
       <r>    -3.1989     0.4602     1.7954 </r>
       <r>    -3.1875     0.3426     1.7993 </r>
       <r>    -3.1762     0.2485     1.8021 </r>
       <r>    -3.1648     0.1757     1.8041 </r>
       <r>    -3.1535     0.1211     1.8055 </r>
       <r>    -3.1421     0.0813     1.8064 </r>
       <r>    -3.1308     0.0532     1.8070 </r>
       <r>    -3.1194     0.0339     1.8074 </r>
       <r>    -3.1080     0.0211     1.8077 </r>
       <r>    -3.0967     0.0128     1.8078 </r>
       <r>    -3.0853     0.0076     1.8079 </r>
       <r>    -3.0740     0.0043     1.8079 </r>
       <r>    -3.0626     0.0024     1.8080 </r>
       <r>    -3.0513     0.0013     1.8080 </r>
       <r>    -3.0399     0.0007     1.8080 </r>
       <r>    -3.0285     0.0004     1.8080 </r>
       <r>    -3.0172     0.0002     1.8080 </r>
       <r>    -3.0058     0.0001     1.8080 </r>
       <r>    -2.9945     0.0000     1.8080 </r>
       <r>    -2.9831     0.0000     1.8080 </r>
       <r>    -2.9718     0.0000     1.8080 </r>
       <r>    -2.9604     0.0000     1.8080 </r>
       <r>    -2.9490     0.0000     1.8080 </r>
       <r>    -2.9377     0.0000     1.8080 </r>
       <r>    -2.9263     0.0000     1.8080 </r>
       <r>    -2.9150     0.0000     1.8080 </r>
       <r>    -2.9036     0.0000     1.8080 </r>
       <r>    -2.8923     0.0000     1.8080 </r>
       <r>    -2.8809     0.0000     1.8080 </r>
       <r>    -2.8695     0.0001     1.8080 </r>
       <r>    -2.8582     0.0001     1.8080 </r>
       <r>    -2.8468     0.0002     1.8080 </r>
       <r>    -2.8355     0.0005     1.8080 </r>
       <r>    -2.8241     0.0009     1.8080 </r>
       <r>    -2.8128     0.0016     1.8080 </r>
       <r>    -2.8014     0.0028     1.8081 </r>
       <r>    -2.7901     0.0048     1.8081 </r>
       <r>    -2.7787     0.0080     1.8082 </r>
       <r>    -2.7673     0.0131     1.8084 </r>
       <r>    -2.7560     0.0209     1.8086 </r>
       <r>    -2.7446     0.0323     1.8090 </r>
       <r>    -2.7333     0.0488     1.8095 </r>
       <r>    -2.7219     0.0718     1.8103 </r>
       <r>    -2.7106     0.1031     1.8115 </r>
       <r>    -2.6992     0.1441     1.8131 </r>
       <r>    -2.6878     0.1963     1.8154 </r>
       <r>    -2.6765     0.2606     1.8183 </r>
       <r>    -2.6651     0.3373     1.8222 </r>
       <r>    -2.6538     0.4254     1.8270 </r>
       <r>    -2.6424     0.5229     1.8329 </r>
       <r>    -2.6311     0.6264     1.8401 </r>
       <r>    -2.6197     0.7314     1.8484 </r>
       <r>    -2.6083     0.8322     1.8578 </r>
       <r>    -2.5970     0.9228     1.8683 </r>
       <r>    -2.5856     0.9974     1.8796 </r>
       <r>    -2.5743     1.0505     1.8915 </r>
       <r>    -2.5629     1.0784     1.9038 </r>
       <r>    -2.5516     1.0788     1.9160 </r>
       <r>    -2.5402     1.0519     1.9280 </r>
       <r>    -2.5289     0.9995     1.9393 </r>
       <r>    -2.5175     0.9257     1.9499 </r>
       <r>    -2.5061     0.8355     1.9593 </r>
       <r>    -2.4948     0.7349     1.9677 </r>
       <r>    -2.4834     0.6300     1.9748 </r>
       <r>    -2.4721     0.5264     1.9808 </r>
       <r>    -2.4607     0.4286     1.9857 </r>
       <r>    -2.4494     0.3401     1.9895 </r>
       <r>    -2.4380     0.2631     1.9925 </r>
       <r>    -2.4266     0.1983     1.9948 </r>
       <r>    -2.4153     0.1457     1.9964 </r>
       <r>    -2.4039     0.1043     1.9976 </r>
       <r>    -2.3926     0.0728     1.9985 </r>
       <r>    -2.3812     0.0495     1.9990 </r>
       <r>    -2.3699     0.0328     1.9994 </r>
       <r>    -2.3585     0.0212     1.9996 </r>
       <r>    -2.3471     0.0133     1.9998 </r>
       <r>    -2.3358     0.0082     1.9999 </r>
       <r>    -2.3244     0.0049     1.9999 </r>
       <r>    -2.3131     0.0029     2.0000 </r>
       <r>    -2.3017     0.0016     2.0000 </r>
       <r>    -2.2904     0.0009     2.0000 </r>
       <r>    -2.2790     0.0005     2.0000 </r>
       <r>    -2.2676     0.0003     2.0000 </r>
       <r>    -2.2563     0.0002     2.0000 </r>
       <r>    -2.2449     0.0003     2.0000 </r>
       <r>    -2.2336     0.0004     2.0000 </r>
       <r>    -2.2222     0.0008     2.0000 </r>
       <r>    -2.2109     0.0014     2.0000 </r>
       <r>    -2.1995     0.0024     2.0001 </r>
       <r>    -2.1882     0.0042     2.0001 </r>
       <r>    -2.1768     0.0070     2.0002 </r>
       <r>    -2.1654     0.0116     2.0003 </r>
       <r>    -2.1541     0.0185     2.0005 </r>
       <r>    -2.1427     0.0289     2.0009 </r>
       <r>    -2.1314     0.0439     2.0014 </r>
       <r>    -2.1200     0.0651     2.0021 </r>
       <r>    -2.1087     0.0940     2.0032 </r>
       <r>    -2.0973     0.1323     2.0047 </r>
       <r>    -2.0859     0.1815     2.0067 </r>
       <r>    -2.0746     0.2426     2.0095 </r>
       <r>    -2.0632     0.3161     2.0131 </r>
       <r>    -2.0519     0.4013     2.0176 </r>
       <r>    -2.0405     0.4967     2.0233 </r>
       <r>    -2.0292     0.5990     2.0301 </r>
       <r>    -2.0178     0.7041     2.0381 </r>
       <r>    -2.0064     0.8065     2.0472 </r>
       <r>    -1.9951     0.9004     2.0575 </r>
       <r>    -1.9837     0.9797     2.0686 </r>
       <r>    -1.9724     1.0389     2.0804 </r>
       <r>    -1.9610     1.0737     2.0926 </r>
       <r>    -1.9497     1.0814     2.1049 </r>
       <r>    -1.9383     1.0615     2.1169 </r>
       <r>    -1.9270     1.0155     2.1284 </r>
       <r>    -1.9156     0.9468     2.1392 </r>
       <r>    -1.9042     0.8603     2.1490 </r>
       <r>    -1.8929     0.7619     2.1576 </r>
       <r>    -1.8815     0.6576     2.1651 </r>
       <r>    -1.8702     0.5531     2.1714 </r>
       <r>    -1.8588     0.4534     2.1765 </r>
       <r>    -1.8475     0.3623     2.1806 </r>
       <r>    -1.8361     0.2821     2.1838 </r>
       <r>    -1.8247     0.2140     2.1863 </r>
       <r>    -1.8134     0.1583     2.1881 </r>
       <r>    -1.8020     0.1141     2.1894 </r>
       <r>    -1.7907     0.0801     2.1903 </r>
       <r>    -1.7793     0.0549     2.1909 </r>
       <r>    -1.7680     0.0366     2.1913 </r>
       <r>    -1.7566     0.0238     2.1916 </r>
       <r>    -1.7452     0.0151     2.1917 </r>
       <r>    -1.7339     0.0093     2.1919 </r>
       <r>    -1.7225     0.0056     2.1919 </r>
       <r>    -1.7112     0.0033     2.1920 </r>
       <r>    -1.6998     0.0019     2.1920 </r>
       <r>    -1.6885     0.0010     2.1920 </r>
       <r>    -1.6771     0.0006     2.1920 </r>
       <r>    -1.6657     0.0003     2.1920 </r>
       <r>    -1.6544     0.0002     2.1920 </r>
       <r>    -1.6430     0.0001     2.1920 </r>
       <r>    -1.6317     0.0000     2.1920 </r>
       <r>    -1.6203     0.0000     2.1920 </r>
       <r>    -1.6090     0.0000     2.1920 </r>
       <r>    -1.5976     0.0000     2.1920 </r>
       <r>    -1.5863     0.0000     2.1920 </r>
       <r>    -1.5749     0.0000     2.1920 </r>
       <r>    -1.5635     0.0000     2.1920 </r>
       <r>    -1.5522     0.0000     2.1920 </r>
       <r>    -1.5408     0.0001     2.1920 </r>
       <r>    -1.5295     0.0001     2.1920 </r>
       <r>    -1.5181     0.0002     2.1920 </r>
       <r>    -1.5068     0.0005     2.1920 </r>
       <r>    -1.4954     0.0009     2.1920 </r>
       <r>    -1.4840     0.0017     2.1920 </r>
       <r>    -1.4727     0.0030     2.1921 </r>
       <r>    -1.4613     0.0054     2.1921 </r>
       <r>    -1.4500     0.0092     2.1922 </r>
       <r>    -1.4386     0.0155     2.1924 </r>
       <r>    -1.4273     0.0253     2.1927 </r>
       <r>    -1.4159     0.0403     2.1932 </r>
       <r>    -1.4045     0.0626     2.1939 </r>
       <r>    -1.3932     0.0947     2.1949 </r>
       <r>    -1.3818     0.1397     2.1965 </r>
       <r>    -1.3705     0.2009     2.1988 </r>
       <r>    -1.3591     0.2817     2.2020 </r>
       <r>    -1.3478     0.3849     2.2064 </r>
       <r>    -1.3364     0.5127     2.2122 </r>
       <r>    -1.3251     0.6659     2.2198 </r>
       <r>    -1.3137     0.8435     2.2293 </r>
       <r>    -1.3023     1.0421     2.2412 </r>
       <r>    -1.2910     1.2563     2.2555 </r>
       <r>    -1.2796     1.4784     2.2722 </r>
       <r>    -1.2683     1.6993     2.2915 </r>
       <r>    -1.2569     1.9093     2.3132 </r>
       <r>    -1.2456     2.0991     2.3371 </r>
       <r>    -1.2342     2.2614     2.3627 </r>
       <r>    -1.2228     2.3912     2.3899 </r>
       <r>    -1.2115     2.4873     2.4181 </r>
       <r>    -1.2001     2.5517     2.4471 </r>
       <r>    -1.1888     2.5895     2.4765 </r>
       <r>    -1.1774     2.6077     2.5061 </r>
       <r>    -1.1661     2.6139     2.5358 </r>
       <r>    -1.1547     2.6148     2.5655 </r>
       <r>    -1.1433     2.6147     2.5952 </r>
       <r>    -1.1320     2.6148     2.6249 </r>
       <r>    -1.1206     2.6129     2.6546 </r>
       <r>    -1.1093     2.6039     2.6842 </r>
       <r>    -1.0979     2.5808     2.7135 </r>
       <r>    -1.0866     2.5359     2.7423 </r>
       <r>    -1.0752     2.4626     2.7702 </r>
       <r>    -1.0638     2.3568     2.7970 </r>
       <r>    -1.0525     2.2174     2.8222 </r>
       <r>    -1.0411     2.0469     2.8454 </r>
       <r>    -1.0298     1.8511     2.8665 </r>
       <r>    -1.0184     1.6383     2.8851 </r>
       <r>    -1.0071     1.4183     2.9012 </r>
       <r>    -0.9957     1.2012     2.9148 </r>
       <r>    -0.9844     0.9963     2.9261 </r>
       <r>    -0.9730     0.8114     2.9353 </r>
       <r>    -0.9616     0.6524     2.9427 </r>
       <r>    -0.9503     0.5228     2.9487 </r>
       <r>    -0.9389     0.4243     2.9535 </r>
       <r>    -0.9276     0.3568     2.9576 </r>
       <r>    -0.9162     0.3192     2.9612 </r>
       <r>    -0.9049     0.3090     2.9647 </r>
       <r>    -0.8935     0.3233     2.9684 </r>
       <r>    -0.8821     0.3588     2.9724 </r>
       <r>    -0.8708     0.4116     2.9771 </r>
       <r>    -0.8594     0.4777     2.9825 </r>
       <r>    -0.8481     0.5529     2.9888 </r>
       <r>    -0.8367     0.6327     2.9960 </r>
       <r>    -0.8254     0.7128     3.0041 </r>
       <r>    -0.8140     0.7891     3.0131 </r>
       <r>    -0.8026     0.8577     3.0228 </r>
       <r>    -0.7913     0.9158     3.0332 </r>
       <r>    -0.7799     0.9610     3.0441 </r>
       <r>    -0.7686     0.9919     3.0554 </r>
       <r>    -0.7572     1.0078     3.0668 </r>
       <r>    -0.7459     1.0088     3.0783 </r>
       <r>    -0.7345     0.9954     3.0896 </r>
       <r>    -0.7232     0.9685     3.1006 </r>
       <r>    -0.7118     0.9294     3.1111 </r>
       <r>    -0.7004     0.8795     3.1211 </r>
       <r>    -0.6891     0.8204     3.1304 </r>
       <r>    -0.6777     0.7539     3.1390 </r>
       <r>    -0.6664     0.6818     3.1467 </r>
       <r>    -0.6550     0.6063     3.1536 </r>
       <r>    -0.6437     0.5297     3.1596 </r>
       <r>    -0.6323     0.4542     3.1648 </r>
       <r>    -0.6209     0.3818     3.1691 </r>
       <r>    -0.6096     0.3144     3.1727 </r>
       <r>    -0.5982     0.2534     3.1756 </r>
       <r>    -0.5869     0.1998     3.1779 </r>
       <r>    -0.5755     0.1540     3.1796 </r>
       <r>    -0.5642     0.1160     3.1809 </r>
       <r>    -0.5528     0.0853     3.1819 </r>
       <r>    -0.5414     0.0612     3.1826 </r>
       <r>    -0.5301     0.0429     3.1831 </r>
       <r>    -0.5187     0.0293     3.1834 </r>
       <r>    -0.5074     0.0195     3.1836 </r>
       <r>    -0.4960     0.0127     3.1838 </r>
       <r>    -0.4847     0.0081     3.1839 </r>
       <r>    -0.4733     0.0050     3.1839 </r>
       <r>    -0.4619     0.0030     3.1840 </r>
       <r>    -0.4506     0.0018     3.1840 </r>
       <r>    -0.4392     0.0010     3.1840 </r>
       <r>    -0.4279     0.0006     3.1840 </r>
       <r>    -0.4165     0.0003     3.1840 </r>
       <r>    -0.4052     0.0002     3.1840 </r>
       <r>    -0.3938     0.0001     3.1840 </r>
       <r>    -0.3825     0.0000     3.1840 </r>
       <r>    -0.3711     0.0000     3.1840 </r>
       <r>    -0.3597     0.0000     3.1840 </r>
       <r>    -0.3484     0.0000     3.1840 </r>
       <r>    -0.3370     0.0000     3.1840 </r>
       <r>    -0.3257     0.0000     3.1840 </r>
       <r>    -0.3143     0.0000     3.1840 </r>
       <r>    -0.3030     0.0000     3.1840 </r>
       <r>    -0.2916     0.0000     3.1840 </r>
       <r>    -0.2802     0.0000     3.1840 </r>
       <r>    -0.2689     0.0000     3.1840 </r>
       <r>    -0.2575     0.0000     3.1840 </r>
       <r>    -0.2462     0.0000     3.1840 </r>
       <r>    -0.2348     0.0000     3.1840 </r>
       <r>    -0.2235     0.0000     3.1840 </r>
       <r>    -0.2121     0.0000     3.1840 </r>
       <r>    -0.2007     0.0000     3.1840 </r>
       <r>    -0.1894     0.0000     3.1840 </r>
       <r>    -0.1780     0.0000     3.1840 </r>
       <r>    -0.1667     0.0000     3.1840 </r>
       <r>    -0.1553     0.0000     3.1840 </r>
       <r>    -0.1440     0.0001     3.1840 </r>
       <r>    -0.1326     0.0001     3.1840 </r>
       <r>    -0.1213     0.0003     3.1840 </r>
       <r>    -0.1099     0.0005     3.1840 </r>
       <r>    -0.0985     0.0010     3.1840 </r>
       <r>    -0.0872     0.0019     3.1840 </r>
       <r>    -0.0758     0.0034     3.1841 </r>
       <r>    -0.0645     0.0059     3.1842 </r>
       <r>    -0.0531     0.0101     3.1843 </r>
       <r>    -0.0418     0.0169     3.1845 </r>
       <r>    -0.0304     0.0275     3.1848 </r>
       <r>    -0.0190     0.0437     3.1853 </r>
       <r>    -0.0077     0.0675     3.1860 </r>
       <r>     0.0037     0.1017     3.1872 </r>
       <r>     0.0150     0.1492     3.1889 </r>
       <r>     0.0264     0.2135     3.1913 </r>
       <r>     0.0377     0.2977     3.1947 </r>
       <r>     0.0491     0.4046     3.1993 </r>
       <r>     0.0605     0.5358     3.2054 </r>
       <r>     0.0718     0.6916     3.2132 </r>
       <r>     0.0832     0.8700     3.2231 </r>
       <r>     0.0945     1.0666     3.2352 </r>
       <r>     0.1059     1.2743     3.2497 </r>
       <r>     0.1172     1.4839     3.2665 </r>
       <r>     0.1286     1.6840     3.2857 </r>
       <r>     0.1400     1.8626     3.3068 </r>
       <r>     0.1513     2.0077     3.3296 </r>
       <r>     0.1627     2.1091     3.3536 </r>
       <r>     0.1740     2.1594     3.3781 </r>
       <r>     0.1854     2.1547     3.4026 </r>
       <r>     0.1967     2.0953     3.4264 </r>
       <r>     0.2081     1.9858     3.4489 </r>
       <r>     0.2194     1.8342     3.4697 </r>
       <r>     0.2308     1.6512     3.4885 </r>
       <r>     0.2422     1.4486     3.5049 </r>
       <r>     0.2535     1.2386     3.5190 </r>
       <r>     0.2649     1.0321     3.5307 </r>
       <r>     0.2762     0.8382     3.5402 </r>
       <r>     0.2876     0.6634     3.5478 </r>
       <r>     0.2989     0.5118     3.5536 </r>
       <r>     0.3103     0.3847     3.5580 </r>
       <r>     0.3217     0.2819     3.5612 </r>
       <r>     0.3330     0.2013     3.5635 </r>
       <r>     0.3444     0.1401     3.5650 </r>
       <r>     0.3557     0.0950     3.5661 </r>
       <r>     0.3671     0.0628     3.5668 </r>
       <r>     0.3784     0.0405     3.5673 </r>
       <r>     0.3898     0.0254     3.5676 </r>
       <r>     0.4012     0.0155     3.5678 </r>
       <r>     0.4125     0.0093     3.5679 </r>
       <r>     0.4239     0.0054     3.5679 </r>
       <r>     0.4352     0.0031     3.5680 </r>
       <r>     0.4466     0.0017     3.5680 </r>
       <r>     0.4579     0.0009     3.5680 </r>
       <r>     0.4693     0.0005     3.5680 </r>
       <r>     0.4806     0.0002     3.5680 </r>
       <r>     0.4920     0.0001     3.5680 </r>
       <r>     0.5034     0.0001     3.5680 </r>
       <r>     0.5147     0.0000     3.5680 </r>
       <r>     0.5261     0.0000     3.5680 </r>
       <r>     0.5374     0.0000     3.5680 </r>
       <r>     0.5488     0.0000     3.5680 </r>
       <r>     0.5601     0.0000     3.5680 </r>
       <r>     0.5715     0.0000     3.5680 </r>
       <r>     0.5829     0.0000     3.5680 </r>
       <r>     0.5942     0.0000     3.5680 </r>
       <r>     0.6056     0.0000     3.5680 </r>
       <r>     0.6169     0.0000     3.5680 </r>
       <r>     0.6283     0.0000     3.5680 </r>
       <r>     0.6396     0.0000     3.5680 </r>
       <r>     0.6510     0.0000     3.5680 </r>
       <r>     0.6624     0.0000     3.5680 </r>
       <r>     0.6737     0.0000     3.5680 </r>
       <r>     0.6851     0.0000     3.5680 </r>
       <r>     0.6964     0.0001     3.5680 </r>
       <r>     0.7078     0.0001     3.5680 </r>
       <r>     0.7191     0.0002     3.5680 </r>
       <r>     0.7305     0.0004     3.5680 </r>
       <r>     0.7419     0.0007     3.5680 </r>
       <r>     0.7532     0.0013     3.5680 </r>
       <r>     0.7646     0.0024     3.5681 </r>
       <r>     0.7759     0.0041     3.5681 </r>
       <r>     0.7873     0.0069     3.5682 </r>
       <r>     0.7986     0.0114     3.5683 </r>
       <r>     0.8100     0.0183     3.5685 </r>
       <r>     0.8213     0.0285     3.5688 </r>
       <r>     0.8327     0.0434     3.5693 </r>
       <r>     0.8441     0.0644     3.5701 </r>
       <r>     0.8554     0.0931     3.5711 </r>
       <r>     0.8668     0.1311     3.5726 </r>
       <r>     0.8781     0.1799     3.5747 </r>
       <r>     0.8895     0.2407     3.5774 </r>
       <r>     0.9008     0.3138     3.5810 </r>
       <r>     0.9122     0.3988     3.5855 </r>
       <r>     0.9236     0.4938     3.5911 </r>
       <r>     0.9349     0.5960     3.5979 </r>
       <r>     0.9463     0.7011     3.6058 </r>
       <r>     0.9576     0.8037     3.6150 </r>
       <r>     0.9690     0.8979     3.6252 </r>
       <r>     0.9803     0.9777     3.6363 </r>
       <r>     0.9917     1.0375     3.6480 </r>
       <r>     1.0031     1.0730     3.6602 </r>
       <r>     1.0144     1.0816     3.6725 </r>
       <r>     1.0258     1.0624     3.6846 </r>
       <r>     1.0371     1.0171     3.6961 </r>
       <r>     1.0485     0.9490     3.7069 </r>
       <r>     1.0598     0.8630     3.7167 </r>
       <r>     1.0712     0.7648     3.7254 </r>
       <r>     1.0825     0.6606     3.7329 </r>
       <r>     1.0939     0.5561     3.7392 </r>
       <r>     1.1053     0.4562     3.7444 </r>
       <r>     1.1166     0.3648     3.7485 </r>
       <r>     1.1280     0.2844     3.7518 </r>
       <r>     1.1393     0.2162     3.7542 </r>
       <r>     1.1507     0.1605     3.7560 </r>
       <r>     1.1620     0.1167     3.7574 </r>
       <r>     1.1734     0.0836     3.7583 </r>
       <r>     1.1848     0.0600     3.7590 </r>
       <r>     1.1961     0.0447     3.7595 </r>
       <r>     1.2075     0.0367     3.7599 </r>
       <r>     1.2188     0.0355     3.7603 </r>
       <r>     1.2302     0.0410     3.7608 </r>
       <r>     1.2415     0.0539     3.7614 </r>
       <r>     1.2529     0.0753     3.7623 </r>
       <r>     1.2643     0.1067     3.7635 </r>
       <r>     1.2756     0.1502     3.7652 </r>
       <r>     1.2870     0.2079     3.7675 </r>
       <r>     1.2983     0.2821     3.7707 </r>
       <r>     1.3097     0.3748     3.7750 </r>
       <r>     1.3210     0.4875     3.7805 </r>
       <r>     1.3324     0.6212     3.7876 </r>
       <r>     1.3438     0.7758     3.7964 </r>
       <r>     1.3551     0.9500     3.8072 </r>
       <r>     1.3665     1.1418     3.8201 </r>
       <r>     1.3778     1.3474     3.8354 </r>
       <r>     1.3892     1.5624     3.8532 </r>
       <r>     1.4005     1.7810     3.8734 </r>
       <r>     1.4119     1.9964     3.8961 </r>
       <r>     1.4232     2.2012     3.9211 </r>
       <r>     1.4346     2.3874     3.9482 </r>
       <r>     1.4460     2.5467     3.9771 </r>
       <r>     1.4573     2.6713     4.0075 </r>
       <r>     1.4687     2.7539     4.0387 </r>
       <r>     1.4800     2.7889     4.0704 </r>
       <r>     1.4914     2.7728     4.1019 </r>
       <r>     1.5027     2.7046     4.1326 </r>
       <r>     1.5141     2.5864     4.1620 </r>
       <r>     1.5255     2.4232     4.1895 </r>
       <r>     1.5368     2.2229     4.2147 </r>
       <r>     1.5482     1.9953     4.2374 </r>
       <r>     1.5595     1.7516     4.2573 </r>
       <r>     1.5709     1.5030     4.2744 </r>
       <r>     1.5822     1.2601     4.2887 </r>
       <r>     1.5936     1.0318     4.3004 </r>
       <r>     1.6050     0.8248     4.3098 </r>
       <r>     1.6163     0.6436     4.3171 </r>
       <r>     1.6277     0.4901     4.3226 </r>
       <r>     1.6390     0.3641     4.3268 </r>
       <r>     1.6504     0.2638     4.3298 </r>
       <r>     1.6617     0.1864     4.3319 </r>
       <r>     1.6731     0.1285     4.3333 </r>
       <r>     1.6844     0.0863     4.3343 </r>
       <r>     1.6958     0.0566     4.3350 </r>
       <r>     1.7072     0.0362     4.3354 </r>
       <r>     1.7185     0.0225     4.3356 </r>
       <r>     1.7299     0.0137     4.3358 </r>
       <r>     1.7412     0.0082     4.3359 </r>
       <r>     1.7526     0.0049     4.3359 </r>
       <r>     1.7639     0.0032     4.3360 </r>
       <r>     1.7753     0.0024     4.3360 </r>
       <r>     1.7867     0.0026     4.3360 </r>
       <r>     1.7980     0.0038     4.3361 </r>
       <r>     1.8094     0.0061     4.3361 </r>
       <r>     1.8207     0.0102     4.3363 </r>
       <r>     1.8321     0.0169     4.3365 </r>
       <r>     1.8434     0.0275     4.3368 </r>
       <r>     1.8548     0.0436     4.3373 </r>
       <r>     1.8662     0.0674     4.3380 </r>
       <r>     1.8775     0.1015     4.3392 </r>
       <r>     1.8889     0.1490     4.3409 </r>
       <r>     1.9002     0.2132     4.3433 </r>
       <r>     1.9116     0.2974     4.3467 </r>
       <r>     1.9229     0.4041     4.3513 </r>
       <r>     1.9343     0.5353     4.3573 </r>
       <r>     1.9457     0.6910     4.3652 </r>
       <r>     1.9570     0.8693     4.3751 </r>
       <r>     1.9684     1.0658     4.3872 </r>
       <r>     1.9797     1.2735     4.4016 </r>
       <r>     1.9911     1.4831     4.4185 </r>
       <r>     2.0024     1.6833     4.4376 </r>
       <r>     2.0138     1.8619     4.4587 </r>
       <r>     2.0251     2.0072     4.4815 </r>
       <r>     2.0365     2.1088     4.5055 </r>
       <r>     2.0479     2.1593     4.5300 </r>
       <r>     2.0592     2.1548     4.5545 </r>
       <r>     2.0706     2.0956     4.5783 </r>
       <r>     2.0819     1.9863     4.6008 </r>
       <r>     2.0933     1.8349     4.6217 </r>
       <r>     2.1046     1.6519     4.6404 </r>
       <r>     2.1160     1.4494     4.6569 </r>
       <r>     2.1274     1.2394     4.6710 </r>
       <r>     2.1387     1.0329     4.6827 </r>
       <r>     2.1501     0.8390     4.6922 </r>
       <r>     2.1614     0.6642     4.6998 </r>
       <r>     2.1728     0.5125     4.7056 </r>
       <r>     2.1841     0.3856     4.7100 </r>
       <r>     2.1955     0.2831     4.7132 </r>
       <r>     2.2069     0.2031     4.7155 </r>
       <r>     2.2182     0.1432     4.7171 </r>
       <r>     2.2296     0.1005     4.7182 </r>
       <r>     2.2409     0.0723     4.7191 </r>
       <r>     2.2523     0.0567     4.7197 </r>
       <r>     2.2636     0.0526     4.7203 </r>
       <r>     2.2750     0.0599     4.7210 </r>
       <r>     2.2863     0.0800     4.7219 </r>
       <r>     2.2977     0.1153     4.7232 </r>
       <r>     2.3091     0.1696     4.7251 </r>
       <r>     2.3204     0.2476     4.7279 </r>
       <r>     2.3318     0.3548     4.7320 </r>
       <r>     2.3431     0.4970     4.7376 </r>
       <r>     2.3545     0.6793     4.7453 </r>
       <r>     2.3658     0.9053     4.7556 </r>
       <r>     2.3772     1.1762     4.7690 </r>
       <r>     2.3886     1.4896     4.7859 </r>
       <r>     2.3999     1.8390     4.8068 </r>
       <r>     2.4113     2.2131     4.8319 </r>
       <r>     2.4226     2.5959     4.8614 </r>
       <r>     2.4340     2.9681     4.8951 </r>
       <r>     2.4453     3.3080     4.9327 </r>
       <r>     2.4567     3.5937     4.9735 </r>
       <r>     2.4681     3.8055     5.0167 </r>
       <r>     2.4794     3.9280     5.0613 </r>
       <r>     2.4908     3.9521     5.1062 </r>
       <r>     2.5021     3.8760     5.1502 </r>
       <r>     2.5135     3.7055     5.1923 </r>
       <r>     2.5248     3.4532     5.2315 </r>
       <r>     2.5362     3.1372     5.2671 </r>
       <r>     2.5476     2.7789     5.2987 </r>
       <r>     2.5589     2.4007     5.3260 </r>
       <r>     2.5703     2.0238     5.3489 </r>
       <r>     2.5816     1.6666     5.3679 </r>
       <r>     2.5930     1.3436     5.3831 </r>
       <r>     2.6043     1.0652     5.3952 </r>
       <r>     2.6157     0.8372     5.4047 </r>
       <r>     2.6270     0.6624     5.4123 </r>
       <r>     2.6384     0.5407     5.4184 </r>
       <r>     2.6498     0.4705     5.4237 </r>
       <r>     2.6611     0.4497     5.4288 </r>
       <r>     2.6725     0.4757     5.4342 </r>
       <r>     2.6838     0.5467     5.4405 </r>
       <r>     2.6952     0.6608     5.4480 </r>
       <r>     2.7065     0.8165     5.4572 </r>
       <r>     2.7179     1.0122     5.4687 </r>
       <r>     2.7293     1.2458     5.4829 </r>
       <r>     2.7406     1.5140     5.5001 </r>
       <r>     2.7520     1.8121     5.5206 </r>
       <r>     2.7633     2.1336     5.5449 </r>
       <r>     2.7747     2.4699     5.5729 </r>
       <r>     2.7860     2.8106     5.6048 </r>
       <r>     2.7974     3.1432     5.6405 </r>
       <r>     2.8088     3.4540     5.6798 </r>
       <r>     2.8201     3.7286     5.7221 </r>
       <r>     2.8315     3.9530     5.7670 </r>
       <r>     2.8428     4.1147     5.8137 </r>
       <r>     2.8542     4.2037     5.8615 </r>
       <r>     2.8655     4.2135     5.9093 </r>
       <r>     2.8769     4.1421     5.9564 </r>
       <r>     2.8882     3.9923     6.0017 </r>
       <r>     2.8996     3.7714     6.0445 </r>
       <r>     2.9110     3.4907     6.0842 </r>
       <r>     2.9223     3.1649     6.1201 </r>
       <r>     2.9337     2.8100     6.1520 </r>
       <r>     2.9450     2.4426     6.1798 </r>
       <r>     2.9564     2.0784     6.2034 </r>
       <r>     2.9677     1.7306     6.2230 </r>
       <r>     2.9791     1.4101     6.2390 </r>
       <r>     2.9905     1.1240     6.2518 </r>
       <r>     3.0018     0.8763     6.2618 </r>
       <r>     3.0132     0.6682     6.2693 </r>
       <r>     3.0245     0.4982     6.2750 </r>
       <r>     3.0359     0.3632     6.2791 </r>
       <r>     3.0472     0.2589     6.2821 </r>
       <r>     3.0586     0.1803     6.2841 </r>
       <r>     3.0700     0.1228     6.2855 </r>
       <r>     3.0813     0.0817     6.2864 </r>
       <r>     3.0927     0.0531     6.2870 </r>
       <r>     3.1040     0.0337     6.2874 </r>
       <r>     3.1154     0.0209     6.2877 </r>
       <r>     3.1267     0.0127     6.2878 </r>
       <r>     3.1381     0.0075     6.2879 </r>
       <r>     3.1495     0.0043     6.2879 </r>
       <r>     3.1608     0.0025     6.2880 </r>
       <r>     3.1722     0.0014     6.2880 </r>
       <r>     3.1835     0.0009     6.2880 </r>
       <r>     3.1949     0.0007     6.2880 </r>
       <r>     3.2062     0.0009     6.2880 </r>
       <r>     3.2176     0.0014     6.2880 </r>
       <r>     3.2289     0.0024     6.2881 </r>
       <r>     3.2403     0.0043     6.2881 </r>
       <r>     3.2517     0.0074     6.2882 </r>
       <r>     3.2630     0.0125     6.2883 </r>
       <r>     3.2744     0.0207     6.2886 </r>
       <r>     3.2857     0.0333     6.2889 </r>
       <r>     3.2971     0.0523     6.2895 </r>
       <r>     3.3084     0.0799     6.2904 </r>
       <r>     3.3198     0.1191     6.2918 </r>
       <r>     3.3312     0.1731     6.2938 </r>
       <r>     3.3425     0.2451     6.2965 </r>
       <r>     3.3539     0.3382     6.3004 </r>
       <r>     3.3652     0.4548     6.3056 </r>
       <r>     3.3766     0.5960     6.3123 </r>
       <r>     3.3879     0.7613     6.3210 </r>
       <r>     3.3993     0.9478     6.3317 </r>
       <r>     3.4107     1.1499     6.3448 </r>
       <r>     3.4220     1.3596     6.3602 </r>
       <r>     3.4334     1.5668     6.3780 </r>
       <r>     3.4447     1.7597     6.3980 </r>
       <r>     3.4561     1.9261     6.4199 </r>
       <r>     3.4674     2.0547     6.4432 </r>
       <r>     3.4788     2.1363     6.4675 </r>
       <r>     3.4901     2.1649     6.4921 </r>
       <r>     3.5015     2.1384     6.5163 </r>
       <r>     3.5129     2.0591     6.5397 </r>
       <r>     3.5242     1.9334     6.5617 </r>
       <r>     3.5356     1.7709     6.5818 </r>
       <r>     3.5469     1.5838     6.5998 </r>
       <r>     3.5583     1.3853     6.6155 </r>
       <r>     3.5696     1.1885     6.6290 </r>
       <r>     3.5810     1.0057     6.6404 </r>
       <r>     3.5924     0.8474     6.6501 </r>
       <r>     3.6037     0.7219     6.6583 </r>
       <r>     3.6151     0.6354     6.6655 </r>
       <r>     3.6264     0.5918     6.6722 </r>
       <r>     3.6378     0.5932     6.6789 </r>
       <r>     3.6491     0.6393     6.6862 </r>
       <r>     3.6605     0.7283     6.6945 </r>
       <r>     3.6719     0.8559     6.7042 </r>
       <r>     3.6832     1.0160     6.7157 </r>
       <r>     3.6946     1.2000     6.7293 </r>
       <r>     3.7059     1.3973     6.7452 </r>
       <r>     3.7173     1.5957     6.7633 </r>
       <r>     3.7286     1.7821     6.7836 </r>
       <r>     3.7400     1.9433     6.8056 </r>
       <r>     3.7514     2.0676     6.8291 </r>
       <r>     3.7627     2.1456     6.8535 </r>
       <r>     3.7741     2.1718     6.8782 </r>
       <r>     3.7854     2.1445     6.9025 </r>
       <r>     3.7968     2.0669     6.9260 </r>
       <r>     3.8081     1.9461     6.9481 </r>
       <r>     3.8195     1.7928     6.9684 </r>
       <r>     3.8308     1.6199     6.9868 </r>
       <r>     3.8422     1.4412     7.0032 </r>
       <r>     3.8536     1.2699     7.0176 </r>
       <r>     3.8649     1.1177     7.0303 </r>
       <r>     3.8763     0.9935     7.0416 </r>
       <r>     3.8876     0.9030     7.0519 </r>
       <r>     3.8990     0.8485     7.0615 </r>
       <r>     3.9103     0.8286     7.0709 </r>
       <r>     3.9217     0.8392     7.0804 </r>
       <r>     3.9331     0.8734     7.0904 </r>
       <r>     3.9444     0.9229     7.1008 </r>
       <r>     3.9558     0.9784     7.1119 </r>
       <r>     3.9671     1.0306     7.1237 </r>
       <r>     3.9785     1.0713     7.1358 </r>
       <r>     3.9898     1.0937     7.1482 </r>
       <r>     4.0012     1.0935     7.1607 </r>
       <r>     4.0126     1.0687     7.1728 </r>
       <r>     4.0239     1.0197     7.1844 </r>
       <r>     4.0353     0.9492     7.1952 </r>
       <r>     4.0466     0.8617     7.2049 </r>
       <r>     4.0580     0.7628     7.2136 </r>
       <r>     4.0693     0.6583     7.2211 </r>
       <r>     4.0807     0.5539     7.2274 </r>
       <r>     4.0920     0.4546     7.2325 </r>
       <r>     4.1034     0.3643     7.2367 </r>
       <r>     4.1148     0.2855     7.2399 </r>
       <r>     4.1261     0.2199     7.2424 </r>
       <r>     4.1375     0.1681     7.2443 </r>
       <r>     4.1488     0.1302     7.2458 </r>
       <r>     4.1602     0.1058     7.2470 </r>
       <r>     4.1715     0.0948     7.2481 </r>
       <r>     4.1829     0.0971     7.2492 </r>
       <r>     4.1943     0.1133     7.2505 </r>
       <r>     4.2056     0.1440     7.2521 </r>
       <r>     4.2170     0.1904     7.2543 </r>
       <r>     4.2283     0.2535     7.2571 </r>
       <r>     4.2397     0.3340     7.2609 </r>
       <r>     4.2510     0.4319     7.2658 </r>
       <r>     4.2624     0.5459     7.2720 </r>
       <r>     4.2738     0.6734     7.2797 </r>
       <r>     4.2851     0.8102     7.2889 </r>
       <r>     4.2965     0.9501     7.2997 </r>
       <r>     4.3078     1.0860     7.3120 </r>
       <r>     4.3192     1.2099     7.3258 </r>
       <r>     4.3305     1.3138     7.3407 </r>
       <r>     4.3419     1.3903     7.3565 </r>
       <r>     4.3533     1.4340     7.3727 </r>
       <r>     4.3646     1.4416     7.3891 </r>
       <r>     4.3760     1.4125     7.4052 </r>
       <r>     4.3873     1.3493     7.4205 </r>
       <r>     4.3987     1.2568     7.4348 </r>
       <r>     4.4100     1.1419     7.4477 </r>
       <r>     4.4214     1.0129     7.4592 </r>
       <r>     4.4327     0.8786     7.4692 </r>
       <r>     4.4441     0.7474     7.4777 </r>
       <r>     4.4555     0.6267     7.4848 </r>
       <r>     4.4668     0.5227     7.4907 </r>
       <r>     4.4782     0.4400     7.4957 </r>
       <r>     4.4895     0.3819     7.5001 </r>
       <r>     4.5009     0.3499     7.5041 </r>
       <r>     4.5122     0.3443     7.5080 </r>
       <r>     4.5236     0.3644     7.5121 </r>
       <r>     4.5350     0.4082     7.5167 </r>
       <r>     4.5463     0.4726     7.5221 </r>
       <r>     4.5577     0.5536     7.5284 </r>
       <r>     4.5690     0.6458     7.5357 </r>
       <r>     4.5804     0.7434     7.5442 </r>
       <r>     4.5917     0.8394     7.5537 </r>
       <r>     4.6031     0.9272     7.5642 </r>
       <r>     4.6145     1.0000     7.5756 </r>
       <r>     4.6258     1.0523     7.5875 </r>
       <r>     4.6372     1.0800     7.5998 </r>
       <r>     4.6485     1.0809     7.6121 </r>
       <r>     4.6599     1.0550     7.6241 </r>
       <r>     4.6712     1.0047     7.6355 </r>
       <r>     4.6826     0.9343     7.6461 </r>
       <r>     4.6939     0.8496     7.6557 </r>
       <r>     4.7053     0.7577     7.6643 </r>
       <r>     4.7167     0.6657     7.6719 </r>
       <r>     4.7280     0.5808     7.6785 </r>
       <r>     4.7394     0.5097     7.6843 </r>
       <r>     4.7507     0.4578     7.6895 </r>
       <r>     4.7621     0.4294     7.6944 </r>
       <r>     4.7734     0.4275     7.6992 </r>
       <r>     4.7848     0.4535     7.7044 </r>
       <r>     4.7962     0.5072     7.7101 </r>
       <r>     4.8075     0.5867     7.7168 </r>
       <r>     4.8189     0.6883     7.7246 </r>
       <r>     4.8302     0.8068     7.7338 </r>
       <r>     4.8416     0.9351     7.7444 </r>
       <r>     4.8529     1.0651     7.7565 </r>
       <r>     4.8643     1.1878     7.7700 </r>
       <r>     4.8757     1.2942     7.7847 </r>
       <r>     4.8870     1.3763     7.8003 </r>
       <r>     4.8984     1.4275     7.8165 </r>
       <r>     4.9097     1.4436     7.8329 </r>
       <r>     4.9211     1.4232     7.8491 </r>
       <r>     4.9324     1.3675     7.8646 </r>
       <r>     4.9438     1.2807     7.8791 </r>
       <r>     4.9552     1.1690     7.8924 </r>
       <r>     4.9665     1.0400     7.9042 </r>
       <r>     4.9779     0.9017     7.9145 </r>
       <r>     4.9892     0.7619     7.9231 </r>
       <r>     5.0006     0.6274     7.9302 </r>
       <r>     5.0119     0.5036     7.9360 </r>
       <r>     5.0233     0.3939     7.9404 </r>
       <r>     5.0346     0.3003     7.9438 </r>
       <r>     5.0460     0.2231     7.9464 </r>
       <r>     5.0574     0.1615     7.9482 </r>
       <r>     5.0687     0.1140     7.9495 </r>
       <r>     5.0801     0.0784     7.9504 </r>
       <r>     5.0914     0.0525     7.9510 </r>
       <r>     5.1028     0.0343     7.9514 </r>
       <r>     5.1141     0.0219     7.9516 </r>
       <r>     5.1255     0.0136     7.9518 </r>
       <r>     5.1369     0.0082     7.9519 </r>
       <r>     5.1482     0.0048     7.9519 </r>
       <r>     5.1596     0.0028     7.9520 </r>
       <r>     5.1709     0.0016     7.9520 </r>
       <r>     5.1823     0.0009     7.9520 </r>
       <r>     5.1936     0.0005     7.9520 </r>
       <r>     5.2050     0.0003     7.9520 </r>
       <r>     5.2164     0.0003     7.9520 </r>
       <r>     5.2277     0.0003     7.9520 </r>
       <r>     5.2391     0.0005     7.9520 </r>
       <r>     5.2504     0.0009     7.9520 </r>
       <r>     5.2618     0.0015     7.9520 </r>
       <r>     5.2731     0.0025     7.9521 </r>
[...]
        <r>    8.6326    0.0000 </r>
        <r>   13.5796    0.0000 </r>
        <r>   14.1555    0.0000 </r>
       </set>
       <set comment="kpoint 10">
        <r>   -3.3291    1.0000 </r>
        <r>   -1.0796    1.0000 </r>
        <r>    1.4988    1.0000 </r>
        <r>    2.4869    1.0000 </r>
        <r>    8.8766    0.0000 </r>
        <r>    9.2515    0.0000 </r>
        <r>    9.9152    0.0000 </r>
        <r>   13.2708    0.0000 </r>
       </set>
      </set>
     </set>
    </array>
   </eigenvalues>
   <array>
    <dimension dim="1">ion</dimension>
    <dimension dim="2">band</dimension>
    <dimension dim="3">kpoint</dimension>
    <dimension dim="4">spin</dimension>
    <field>    s</field>
    <field>   py</field>
    <field>   pz</field>
    <field>   px</field>
    <field>  dxy</field>
    <field>  dyz</field>
    <field>  dz2</field>
    <field>  dxz</field>
    <field>x2-y2</field>
    <set>
     <set comment="spin1">
      <set comment="kpoint 1">
       <set comment="band 1">
        <r>  0.2039  0.0000  0.0000  0.0000  0.0000  0.0000  0.0000  0.0000  0.0000 </r>
        <r>  0.2039  0.0000  0.0000  0.0000  0.0000  0.0000  0.0000  0.0000  0.0000 </r>
       </set>
       <set comment="band 2">
        <r>  0.0000  0.0717  0.0717  0.0717  0.0107  0.0107  0.0000  0.0107  0.0000 </r>
        <r>  0.0000  0.0717  0.0717  0.0717  0.0107  0.0107  0.0000  0.0107  0.0000 </r>
       </set>
       <set comment="band 3">
        <r>  0.0000  0.0794  0.0140  0.1218  0.0021  0.0182  0.0000  0.0119  0.0000 </r>
        <r>  0.0000  0.0794  0.0140  0.1218  0.0021  0.0182  0.0000  0.0119  0.0000 </r>
       </set>
       <set comment="band 4">
        <r>  0.0000  0.0641  0.1295  0.0216  0.0193  0.0032  0.0000  0.0096  0.0000 </r>
        <r>  0.0000  0.0641  0.1295  0.0216  0.0193  0.0032  0.0000  0.0096  0.0000 </r>
       </set>
       <set comment="band 5">
        <r>  0.0000  0.0507  0.0507  0.0507  0.0117  0.0117  0.0000  0.0117  0.0000 </r>
        <r>  0.0000  0.0507  0.0507  0.0507  0.0117  0.0117  0.0000  0.0117  0.0000 </r>
       </set>
       <set comment="band 6">
        <r>  0.0000  0.0794  0.0698  0.0029  0.0161  0.0007  0.0000  0.0183  0.0000 </r>
        <r>  0.0000  0.0794  0.0698  0.0029  0.0161  0.0007  0.0000  0.0183  0.0000 </r>
       </set>
       <set comment="band 7">
        <r>  0.0000  0.0220  0.0316  0.0985  0.0073  0.0227  0.0000  0.0051  0.0000 </r>
        <r>  0.0000  0.0220  0.0316  0.0985  0.0073  0.0227  0.0000  0.0051  0.0000 </r>
       </set>
       <set comment="band 8">
        <r>  0.3810  0.0000  0.0000  0.0000  0.0000  0.0000  0.0000  0.0000  0.0000 </r>
        <r>  0.3810  0.0000  0.0000  0.0000  0.0000  0.0000  0.0000  0.0000  0.0000 </r>
       </set>
      </set>
      <set comment="kpoint 2">
       <set comment="band 1">
        <r>  0.2025  0.0017  0.0017  0.0017  0.0001  0.0001  0.0000  0.0001  0.0000 </r>
        <r>  0.2025  0.0017  0.0017  0.0017  0.0001  0.0001  0.0000  0.0001  0.0000 </r>
       </set>
       <set comment="band 2">
        <r>  0.0860  0.0436  0.0436  0.0436  0.0046  0.0046  0.0000  0.0046  0.0000 </r>
        <r>  0.0860  0.0436  0.0436  0.0436  0.0046  0.0046  0.0000  0.0046  0.0000 </r>
       </set>
       <set comment="band 3">
        <r>  0.0000  0.0353  0.1411  0.0353  0.0148  0.0037  0.0007  0.0037  0.0000 </r>
        <r>  0.0000  0.0353  0.1411  0.0353  0.0148  0.0037  0.0007  0.0037  0.0000 </r>
       </set>
       <set comment="band 4">
        <r>  0.0000  0.1058  0.0000  0.1058  0.0000  0.0111  0.0000  0.0111  0.0007 </r>
        <r>  0.0000  0.1058  0.0000  0.1058  0.0000  0.0111  0.0000  0.0111  0.0007 </r>
       </set>
       <set comment="band 5">
        <r>  0.1469  0.0208  0.0208  0.0208  0.0103  0.0103  0.0000  0.0103  0.0000 </r>
        <r>  0.1469  0.0208  0.0208  0.0208  0.0103  0.0103  0.0000  0.0103  0.0000 </r>
       </set>
       <set comment="band 6">
        <r>  0.0000  0.0252  0.1008  0.0252  0.0243  0.0061  0.0084  0.0061  0.0000 </r>
        <r>  0.0000  0.0252  0.1008  0.0252  0.0243  0.0061  0.0084  0.0061  0.0000 </r>
       </set>
       <set comment="band 7">
        <r>  0.0000  0.0756  0.0000  0.0756  0.0000  0.0182  0.0000  0.0182  0.0084 </r>
        <r>  0.0000  0.0756  0.0000  0.0756  0.0000  0.0182  0.0000  0.0182  0.0084 </r>
       </set>
       <set comment="band 8">
        <r>  0.1609  0.0447  0.0447  0.0447  0.0056  0.0056  0.0000  0.0056  0.0000 </r>
        <r>  0.1609  0.0447  0.0447  0.0447  0.0056  0.0056  0.0000  0.0056  0.0000 </r>
       </set>
      </set>
      <set comment="kpoint 3">
       <set comment="band 1">
        <r>  0.2079  0.0048  0.0048  0.0048  0.0007  0.0007  0.0000  0.0007  0.0000 </r>
        <r>  0.2079  0.0048  0.0048  0.0048  0.0007  0.0007  0.0000  0.0007  0.0000 </r>
       </set>
       <set comment="band 2">
        <r>  0.1047  0.0312  0.0312  0.0312  0.0011  0.0011  0.0000  0.0011  0.0000 </r>
        <r>  0.1047  0.0312  0.0312  0.0312  0.0011  0.0011  0.0000  0.0011  0.0000 </r>
       </set>
       <set comment="band 3">
        <r>  0.0000  0.0359  0.1436  0.0359  0.0086  0.0022  0.0018  0.0022  0.0000 </r>
        <r>  0.0000  0.0359  0.1436  0.0359  0.0086  0.0022  0.0018  0.0022  0.0000 </r>
       </set>
       <set comment="band 4">
        <r>  0.0000  0.1077  0.0000  0.1077  0.0000  0.0065  0.0000  0.0065  0.0018 </r>
        <r>  0.0000  0.1077  0.0000  0.1077  0.0000  0.0065  0.0000  0.0065  0.0018 </r>
       </set>
       <set comment="band 5">
        <r>  0.1903  0.0079  0.0079  0.0079  0.0114  0.0114  0.0000  0.0114  0.0000 </r>
        <r>  0.1903  0.0079  0.0079  0.0079  0.0114  0.0114  0.0000  0.0114  0.0000 </r>
       </set>
       <set comment="band 6">
        <r>  0.0000  0.0170  0.0680  0.0170  0.0170  0.0043  0.0347  0.0043  0.0000 </r>
        <r>  0.0000  0.0170  0.0680  0.0170  0.0170  0.0043  0.0347  0.0043  0.0000 </r>
       </set>
       <set comment="band 7">
        <r>  0.0000  0.0510  0.0000  0.0510  0.0000  0.0128  0.0000  0.0128  0.0347 </r>
        <r>  0.0000  0.0510  0.0000  0.0510  0.0000  0.0128  0.0000  0.0128  0.0347 </r>
       </set>
       <set comment="band 8">
        <r>  0.0042  0.0235  0.0235  0.0235  0.0056  0.0056  0.0000  0.0056  0.0000 </r>
        <r>  0.0042  0.0235  0.0235  0.0235  0.0056  0.0056  0.0000  0.0056  0.0000 </r>
       </set>
      </set>
      <set comment="kpoint 4">
       <set comment="band 1">
        <r>  0.2014  0.0073  0.0000  0.0000  0.0000  0.0000  0.0000  0.0004  0.0000 </r>
        <r>  0.2014  0.0073  0.0000  0.0000  0.0000  0.0000  0.0000  0.0004  0.0000 </r>
       </set>
       <set comment="band 2">
        <r>  0.1399  0.1143  0.0000  0.0000  0.0000  0.0000  0.0002  0.0167  0.0007 </r>
        <r>  0.1399  0.1143  0.0000  0.0000  0.0000  0.0000  0.0002  0.0167  0.0007 </r>
       </set>
       <set comment="band 3">
        <r>  0.0000  0.0000  0.0989  0.0989  0.0078  0.0078  0.0000  0.0000  0.0000 </r>
        <r>  0.0000  0.0000  0.0989  0.0989  0.0078  0.0078  0.0000  0.0000  0.0000 </r>
       </set>
       <set comment="band 4">
        <r>  0.0000  0.0000  0.0989  0.0989  0.0078  0.0078  0.0000  0.0000  0.0000 </r>
        <r>  0.0000  0.0000  0.0989  0.0989  0.0078  0.0078  0.0000  0.0000  0.0000 </r>
       </set>
       <set comment="band 5">
        <r>  0.0371  0.0918  0.0000  0.0000  0.0000  0.0000  0.0013  0.0300  0.0038 </r>
        <r>  0.0371  0.0918  0.0000  0.0000  0.0000  0.0000  0.0013  0.0300  0.0038 </r>
       </set>
       <set comment="band 6">
        <r>  0.0762  0.0503  0.0000  0.0000  0.0000  0.0000  0.0109  0.0077  0.0326 </r>
        <r>  0.0762  0.0503  0.0000  0.0000  0.0000  0.0000  0.0109  0.0077  0.0326 </r>
       </set>
       <set comment="band 7">
        <r>  0.0000  0.0000  0.0847  0.0846  0.0285  0.0285  0.0000  0.0000  0.0000 </r>
        <r>  0.0000  0.0000  0.0846  0.0847  0.0285  0.0285  0.0000  0.0000  0.0000 </r>
       </set>
       <set comment="band 8">
        <r>  0.0000  0.0000  0.0846  0.0847  0.0285  0.0285  0.0000  0.0000  0.0000 </r>
        <r>  0.0000  0.0000  0.0847  0.0846  0.0285  0.0285  0.0000  0.0000  0.0000 </r>
       </set>
      </set>
      <set comment="kpoint 5">
       <set comment="band 1">
        <r>  0.2008  0.0147  0.0015  0.0015  0.0003  0.0003  0.0000  0.0009  0.0001 </r>
        <r>  0.2008  0.0147  0.0015  0.0015  0.0003  0.0003  0.0000  0.0009  0.0001 </r>
       </set>
       <set comment="band 2">
        <r>  0.1397  0.0408  0.0240  0.0240  0.0009  0.0009  0.0000  0.0056  0.0001 </r>
        <r>  0.1397  0.0408  0.0240  0.0240  0.0009  0.0009  0.0000  0.0056  0.0001 </r>
       </set>
       <set comment="band 3">
        <r>  0.0335  0.0696  0.0447  0.0447  0.0019  0.0019  0.0008  0.0043  0.0023 </r>
        <r>  0.0335  0.0696  0.0447  0.0447  0.0019  0.0019  0.0008  0.0043  0.0023 </r>
       </set>
       <set comment="band 4">
        <r>  0.0000  0.0000  0.0995  0.0995  0.0045  0.0045  0.0007  0.0000  0.0002 </r>
        <r>  0.0000  0.0000  0.0995  0.0995  0.0045  0.0045  0.0007  0.0000  0.0002 </r>
       </set>
       <set comment="band 5">
        <r>  0.0473  0.0565  0.0065  0.0065  0.0007  0.0007  0.0043  0.0255  0.0129 </r>
        <r>  0.0473  0.0565  0.0065  0.0065  0.0007  0.0007  0.0043  0.0255  0.0129 </r>
       </set>
       <set comment="band 6">
        <r>  0.0352  0.0229  0.0243  0.0243  0.0015  0.0015  0.0071  0.0271  0.0214 </r>
        <r>  0.0352  0.0229  0.0243  0.0243  0.0015  0.0015  0.0071  0.0271  0.0214 </r>
       </set>
       <set comment="band 7">
        <r>  0.0624  0.0294  0.0466  0.0466  0.0221  0.0221  0.0011  0.0035  0.0034 </r>
        <r>  0.0624  0.0294  0.0466  0.0466  0.0221  0.0221  0.0011  0.0035  0.0034 </r>
       </set>
       <set comment="band 8">
        <r>  0.0000  0.0000  0.0639  0.0639  0.0204  0.0204  0.0228  0.0000  0.0076 </r>
        <r>  0.0000  0.0000  0.0639  0.0639  0.0204  0.0204  0.0228  0.0000  0.0076 </r>
       </set>
      </set>
      <set comment="kpoint 6">
       <set comment="band 1">
        <r>  0.2128  0.0070  0.0064  0.0064  0.0009  0.0009  0.0000  0.0017  0.0000 </r>
        <r>  0.2128  0.0070  0.0064  0.0064  0.0009  0.0009  0.0000  0.0017  0.0000 </r>
       </set>
       <set comment="band 2">
        <r>  0.1270  0.0350  0.0231  0.0231  0.0010  0.0010  0.0001  0.0009  0.0002 </r>
        <r>  0.1270  0.0350  0.0231  0.0231  0.0010  0.0010  0.0001  0.0009  0.0002 </r>
       </set>
       <set comment="band 3">
        <r>  0.0368  0.0799  0.0338  0.0338  0.0013  0.0013  0.0007  0.0029  0.0020 </r>
        <r>  0.0368  0.0799  0.0338  0.0338  0.0013  0.0013  0.0007  0.0029  0.0020 </r>
       </set>
       <set comment="band 4">
        <r>  0.0000  0.0000  0.1028  0.1028  0.0038  0.0038  0.0024  0.0000  0.0008 </r>
        <r>  0.0000  0.0000  0.1028  0.1028  0.0038  0.0038  0.0024  0.0000  0.0008 </r>
       </set>
       <set comment="band 5">
        <r>  0.0651  0.0525  0.0014  0.0014  0.0003  0.0003  0.0052  0.0253  0.0155 </r>
        <r>  0.0651  0.0525  0.0014  0.0014  0.0003  0.0003  0.0052  0.0253  0.0155 </r>
       </set>
       <set comment="band 6">
        <r>  0.0614  0.0519  0.0250  0.0250  0.0192  0.0192  0.0021  0.0091  0.0064 </r>
        <r>  0.0614  0.0519  0.0250  0.0250  0.0192  0.0192  0.0021  0.0091  0.0064 </r>
       </set>
       <set comment="band 7">
        <r>  0.0000  0.0000  0.0558  0.0558  0.0163  0.0163  0.0256  0.0000  0.0085 </r>
        <r>  0.0000  0.0000  0.0558  0.0558  0.0163  0.0163  0.0256  0.0000  0.0085 </r>
       </set>
       <set comment="band 8">
        <r>  0.0182  0.0174  0.0459  0.0459  0.0019  0.0019  0.0053  0.0482  0.0158 </r>
        <r>  0.0182  0.0174  0.0459  0.0459  0.0019  0.0019  0.0053  0.0482  0.0158 </r>
       </set>
      </set>
      <set comment="kpoint 7">
       <set comment="band 1">
        <r>  0.2014  0.0007  0.0061  0.0061  0.0003  0.0003  0.0000  0.0004  0.0000 </r>
        <r>  0.2014  0.0007  0.0061  0.0061  0.0003  0.0003  0.0000  0.0004  0.0000 </r>
       </set>
       <set comment="band 2">
        <r>  0.1370  0.0359  0.0312  0.0312  0.0049  0.0049  0.0000  0.0002  0.0000 </r>
        <r>  0.1370  0.0359  0.0312  0.0312  0.0049  0.0049  0.0000  0.0002  0.0000 </r>
       </set>
       <set comment="band 3">
        <r>  0.0138  0.0925  0.0335  0.0335  0.0009  0.0009  0.0003  0.0062  0.0009 </r>
        <r>  0.0138  0.0925  0.0335  0.0335  0.0009  0.0009  0.0003  0.0062  0.0009 </r>
       </set>
       <set comment="band 4">
        <r>  0.0000  0.0000  0.1079  0.1079  0.0072  0.0072  0.0029  0.0000  0.0010 </r>
        <r>  0.0000  0.0000  0.1079  0.1079  0.0072  0.0072  0.0029  0.0000  0.0010 </r>
       </set>
       <set comment="band 5">
        <r>  0.0862  0.0795  0.0009  0.0009  0.0001  0.0001  0.0034  0.0272  0.0102 </r>
        <r>  0.0862  0.0795  0.0009  0.0009  0.0001  0.0001  0.0034  0.0272  0.0102 </r>
       </set>
       <set comment="band 6">
        <r>  0.0000  0.0000  0.0754  0.0754  0.0169  0.0169  0.0074  0.0000  0.0025 </r>
        <r>  0.0000  0.0000  0.0754  0.0754  0.0169  0.0169  0.0074  0.0000  0.0025 </r>
       </set>
       <set comment="band 7">
        <r>  0.0338  0.1077  0.0047  0.0047  0.0219  0.0219  0.0002  0.0185  0.0006 </r>
        <r>  0.0338  0.1077  0.0047  0.0047  0.0219  0.0219  0.0002  0.0185  0.0006 </r>
       </set>
       <set comment="band 8">
        <r>  0.0769  0.0096  0.0453  0.0453  0.0026  0.0026  0.0075  0.0002  0.0223 </r>
        <r>  0.0769  0.0096  0.0453  0.0453  0.0026  0.0026  0.0075  0.0002  0.0223 </r>
       </set>
      </set>
      <set comment="kpoint 8">
       <set comment="band 1">
        <r>  0.1946  0.0286  0.0000  0.0000  0.0000  0.0000  0.0001  0.0019  0.0003 </r>
        <r>  0.1946  0.0286  0.0000  0.0000  0.0000  0.0000  0.0001  0.0019  0.0003 </r>
       </set>
       <set comment="band 2">
        <r>  0.1824  0.0627  0.0000  0.0000  0.0000  0.0000  0.0003  0.0064  0.0008 </r>
        <r>  0.1824  0.0627  0.0000  0.0000  0.0000  0.0000  0.0003  0.0064  0.0008 </r>
       </set>
       <set comment="band 3">
        <r>  0.0000  0.0000  0.0973  0.0973  0.0023  0.0023  0.0000  0.0000  0.0000 </r>
        <r>  0.0000  0.0000  0.0973  0.0973  0.0023  0.0023  0.0000  0.0000  0.0000 </r>
       </set>
       <set comment="band 4">
        <r>  0.0000  0.0000  0.0973  0.0973  0.0023  0.0023  0.0000  0.0000  0.0000 </r>
        <r>  0.0000  0.0000  0.0973  0.0973  0.0023  0.0023  0.0000  0.0000  0.0000 </r>
       </set>
       <set comment="band 5">
        <r>  0.0554  0.0461  0.0000  0.0000  0.0000  0.0000  0.0037  0.0270  0.0112 </r>
        <r>  0.0554  0.0461  0.0000  0.0000  0.0000  0.0000  0.0037  0.0270  0.0112 </r>
       </set>
       <set comment="band 6">
        <r>  0.0488  0.0301  0.0000  0.0000  0.0000  0.0000  0.0071  0.0226  0.0212 </r>
        <r>  0.0488  0.0301  0.0000  0.0000  0.0000  0.0000  0.0071  0.0226  0.0212 </r>
       </set>
       <set comment="band 7">
        <r>  0.0000  0.0000  0.0850  0.0860  0.0399  0.0396  0.0000  0.0000  0.0000 </r>
        <r>  0.0000  0.0000  0.0860  0.0850  0.0396  0.0399  0.0000  0.0000  0.0000 </r>
       </set>
       <set comment="band 8">
        <r>  0.0000  0.0000  0.0860  0.0850  0.0396  0.0399  0.0000  0.0000  0.0000 </r>
        <r>  0.0000  0.0000  0.0850  0.0860  0.0399  0.0396  0.0000  0.0000  0.0000 </r>
       </set>
      </set>
      <set comment="kpoint 9">
       <set comment="band 1">
        <r>  0.2052  0.0296  0.0028  0.0028  0.0004  0.0004  0.0001  0.0036  0.0002 </r>
        <r>  0.2052  0.0296  0.0028  0.0028  0.0004  0.0004  0.0001  0.0036  0.0002 </r>
       </set>
       <set comment="band 2">
        <r>  0.1840  0.0432  0.0035  0.0035  0.0006  0.0006  0.0001  0.0029  0.0004 </r>
        <r>  0.1840  0.0432  0.0035  0.0035  0.0006  0.0006  0.0001  0.0029  0.0004 </r>
       </set>
       <set comment="band 3">
        <r>  0.0006  0.0314  0.0626  0.0626  0.0004  0.0004  0.0008  0.0001  0.0023 </r>
        <r>  0.0006  0.0314  0.0626  0.0626  0.0004  0.0004  0.0008  0.0001  0.0023 </r>
       </set>
       <set comment="band 4">
        <r>  0.0000  0.0000  0.0983  0.0983  0.0020  0.0020  0.0009  0.0000  0.0003 </r>
        <r>  0.0000  0.0000  0.0983  0.0983  0.0020  0.0020  0.0009  0.0000  0.0003 </r>
       </set>
       <set comment="band 5">
        <r>  0.0545  0.0373  0.0006  0.0006  0.0000  0.0000  0.0053  0.0251  0.0160 </r>
        <r>  0.0545  0.0373  0.0006  0.0006  0.0000  0.0000  0.0053  0.0251  0.0160 </r>
       </set>
       <set comment="band 6">
        <r>  0.0325  0.0179  0.0313  0.0313  0.0015  0.0015  0.0048  0.0320  0.0145 </r>
        <r>  0.0325  0.0179  0.0313  0.0313  0.0015  0.0015  0.0048  0.0320  0.0145 </r>
       </set>
       <set comment="band 7">
        <r>  0.0000  0.0000  0.0844  0.0843  0.0159  0.0158  0.0212  0.0000  0.0071 </r>
        <r>  0.0000  0.0000  0.0843  0.0844  0.0158  0.0159  0.0212  0.0000  0.0071 </r>
       </set>
       <set comment="band 8">
        <r>  0.0274  0.1002  0.0001  0.0001  0.0522  0.0522  0.0000  0.0060  0.0000 </r>
        <r>  0.0345  0.0894  0.0013  0.0013  0.0477  0.0476  0.0000  0.0059  0.0001 </r>
       </set>
      </set>
      <set comment="kpoint 10">
       <set comment="band 1">
        <r>  0.2027  0.0215  0.0054  0.0020  0.0014  0.0001  0.0000  0.0017  0.0001 </r>
        <r>  0.2027  0.0215  0.0054  0.0020  0.0014  0.0001  0.0000  0.0017  0.0001 </r>
       </set>
       <set comment="band 2">
        <r>  0.1849  0.0310  0.0248  0.0031  0.0015  0.0004  0.0000  0.0043  0.0002 </r>
        <r>  0.1849  0.0310  0.0248  0.0031  0.0015  0.0004  0.0000  0.0043  0.0002 </r>
       </set>
       <set comment="band 3">
        <r>  0.0072  0.0263  0.0708  0.0566  0.0013  0.0001  0.0023  0.0005  0.0004 </r>
        <r>  0.0072  0.0263  0.0708  0.0566  0.0013  0.0001  0.0023  0.0005  0.0004 </r>
       </set>
       <set comment="band 4">
        <r>  0.0017  0.0503  0.0380  0.0826  0.0001  0.0028  0.0024  0.0003  0.0022 </r>
        <r>  0.0017  0.0503  0.0380  0.0826  0.0001  0.0028  0.0024  0.0003  0.0022 </r>
       </set>
       <set comment="band 5">
        <r>  0.0288  0.0282  0.0269  0.0425  0.0040  0.0006  0.0022  0.0331  0.0130 </r>
        <r>  0.0288  0.0282  0.0269  0.0425  0.0040  0.0006  0.0022  0.0331  0.0130 </r>
       </set>
       <set comment="band 6">
        <r>  0.0082  0.0040  0.0021  0.0680  0.0079  0.0032  0.0137  0.0275  0.0136 </r>
        <r>  0.0082  0.0040  0.0021  0.0680  0.0079  0.0032  0.0137  0.0275  0.0136 </r>
       </set>
       <set comment="band 7">
        <r>  0.0720  0.0338  0.0515  0.0119  0.0238  0.0004  0.0095  0.0021  0.0107 </r>
        <r>  0.0720  0.0338  0.0515  0.0119  0.0238  0.0004  0.0095  0.0021  0.0107 </r>
       </set>
       <set comment="band 8">
        <r>  0.0205  0.0497  0.0238  0.0405  0.0486  0.0024  0.0203  0.0002  0.0023 </r>
        <r>  0.0205  0.0497  0.0238  0.0405  0.0486  0.0024  0.0203  0.0002  0.0023 </r>
       </set>
      </set>
     </set>
    </set>
   </array>
  </projected>
 </calculation>
 <structure name="finalpos" >
  <crystal>
   <varray name="basis" >
    <v>       2.71500000       2.71500000       0.00000000 </v>
    <v>       0.00000000       2.71500000       2.71500000 </v>
    <v>       2.71500000       0.00000000       2.71500000 </v>
   </varray>
   <i name="volume">     40.02575175 </i>
   <varray name="rec_basis" >
    <v>       0.18416206       0.18416206      -0.18416206 </v>
    <v>      -0.18416206       0.18416206       0.18416206 </v>
    <v>       0.18416206      -0.18416206       0.18416206 </v>
   </varray>
  </crystal>
  <varray name="positions" >
   <v>       0.00000000       0.00000000       0.00000000 </v>
   <v>       0.25000000       0.25000000       0.25000000 </v>
  </varray>
 </structure>
</modeling>
