Silicon                                 
   5.43000000000000     
     0.506095    0.506095    0.000000
     0.000000    0.506095    0.506095
     0.506095    0.000000    0.506095
   Si
     2
Direct
  0.000000  0.000000  0.000000
  0.250000  0.250000  0.250000
 
   60   60   60
 -.77237     -.43556     0.54144      2.0636      3.9886      6.1476      8.3666      10.487      12.376      13.940    
  15.116      15.880      16.231      16.199      15.831      15.195      14.370      13.442      12.492      11.575    
  10.719      9.9402      9.2475      8.6436      8.1270      7.6944      7.3427      7.0697      6.8745      6.7571    
  6.7179      6.7571      6.8745      7.0697      7.3427      7.6944      8.1270      8.6436      9.2475      9.9402    
  10.719      11.575      12.492      13.442      14.370      15.195      15.831      16.199      16.231      15.880    
  15.116      13.940      12.376      10.487      8.3666      6.1476      3.9886      2.0636     0.54144     -.43556    
 -.43556     0.25354      1.5628      3.3653      5.4953      7.7717      10.020      12.091      13.868      15.273    
  16.265      16.834      16.996      16.792      16.282      15.540      14.650      13.698      12.756      11.861    
  11.034      10.288      9.6287      9.0571      8.5710      8.1678      7.8453      7.6028      7.4404      7.3589    
  7.3589      7.4404      7.6028      7.8453      8.1678      8.5710      9.0571      9.6287      10.288      11.034    
  11.861      12.756      13.698      14.650      15.540      16.282      16.792      16.996      16.834      16.265    
  15.273      13.868      12.091      10.020      7.7717      5.4953      3.3653      1.5628     0.25354     -.43556    
 0.54144      1.5628      3.1509      5.1536      7.3914      9.6819      11.860      13.792      15.382      16.573    
  17.341      17.690      17.653      17.280      16.640      15.813      14.884      13.934      13.015      12.153    
  11.364      10.657      10.035      9.4983      9.0449      8.6730      8.3820      8.1727      8.0463      8.0040    
  8.0463      8.1727      8.3820      8.6730      9.0449      9.4983      10.035      10.657      11.364      12.153    
  13.015      13.934      14.884      15.813      16.640      17.280      17.653      17.690      17.341      16.573    
  15.382      13.792      11.860      9.6819      7.3914      5.1536      3.1509      1.5628     0.54144     0.18898    
  2.0636      3.3653      5.1536      7.2607      9.5043      11.710      13.731      15.454      16.805      17.745    
  18.268      18.393      18.163      17.639      16.895      16.014      15.078      14.153      13.271      12.452    
  11.707      11.043      10.462      9.9614      9.5418      9.2027      8.9455      8.7721      8.6848      8.6848    
  8.7721      8.9455      9.2027      9.5418      9.9614      10.462      11.043      11.707      12.452      13.271    
  14.153      15.078      16.014      16.895      17.639      18.163      18.393      18.268      17.745      16.805    
  15.454      13.731      11.710      9.5043      7.2607      5.1536      3.3653      2.0636      1.3776      1.3776    
  3.9886      5.4953      7.3914      9.5043      11.659      13.698      15.495      16.960      18.040      18.716    
  18.994      18.907      18.507      17.862      17.050      16.152      15.241      14.358      13.525      12.756    
  12.061      11.442      10.901      10.437      10.052      9.7472      9.5257      9.3911      9.3459      9.3911    
  9.5257      9.7472      10.052      10.437      10.901      11.442      12.061      12.756      13.525      14.358    
  15.241      16.152      17.050      17.862      18.507      18.907      18.994      18.716      18.040      16.960    
  15.495      13.698      11.659      9.5043      7.3915      5.4953      3.9886      3.0183      2.6832      3.0183    
  6.1476      7.7717      9.6819      11.710      13.698      15.508      17.038      18.221      19.022      19.437    
  19.488      19.217      18.683      17.958      17.120      16.244      15.379      14.551      13.775      13.061    
  12.417      11.843      11.342      10.914      10.564      10.294      10.111      10.018      10.018      10.111    
  10.294      10.564      10.914      11.342      11.843      12.417      13.061      13.775      14.551      15.379    
  16.244      17.120      17.958      18.683      19.217      19.488      19.437      19.022      18.221      17.038    
  15.508      13.698      11.710      9.6819      7.7717      6.1476      4.9639      4.3396      4.3396      4.9639    
  8.3666      10.020      11.860      13.731      15.495      17.038      18.281      19.178      19.710      19.888    
  19.743      19.327      18.704      17.946      17.126      16.300      15.496      14.731      14.016      13.360    
  12.765      12.235      11.771      11.378      11.062      10.830      10.687      10.639      10.687      10.830    
  11.062      11.378      11.771      12.235      12.765      13.360      14.016      14.731      15.496      16.300    
  17.126      17.946      18.704      19.327      19.743      19.888      19.710      19.178      18.281      17.038    
  15.495      13.731      11.860      10.020      8.3666      7.0514      6.2040      5.9113      6.2040      7.0514    
  10.487      12.091      13.792      15.454      16.960      18.221      19.178      19.802      20.091      20.067    
  19.772      19.260      18.597      17.853      17.087      16.327      15.592      14.894      14.243      13.641    
  13.093      12.602      12.173      11.813      11.532      11.337      11.238      11.238      11.337      11.532    
  11.813      12.173      12.602      13.093      13.641      14.243      14.894      15.592      16.327      17.087    
  17.853      18.597      19.260      19.772      20.067      20.091      19.802      19.178      18.221      16.960    
  15.454      13.792      12.091      10.487      9.1218      8.1269      7.6022      7.6022      8.1269      9.1218    
  12.376      13.868      15.382      16.805      18.040      19.022      19.710      20.091      20.177      19.998    
  19.602      19.047      18.396      17.707      17.012      16.327      15.665      15.036      14.443      13.892    
  13.385      12.927      12.527      12.196      11.948      11.794      11.742      11.794      11.948      12.196    
  12.527      12.927      13.385      13.892      14.443      15.036      15.665      16.327      17.012      17.707    
  18.396      19.047      19.602      19.998      20.177      20.091      19.710      19.022      18.040      16.805    
  15.382      13.868      12.376      11.035      9.9688      9.2818      9.0446      9.2818      9.9688      11.035    
  13.940      15.273      16.573      17.745      18.716      19.437      19.888      20.067      19.998      19.718    
  19.277      18.732      18.137      17.523      16.907      16.300      15.712      15.146      14.606      14.095    
  13.618      13.184      12.808      12.506      12.294      12.185      12.185      12.294      12.506      12.808    
  13.184      13.618      14.095      14.606      15.146      15.712      16.300      16.907      17.523      18.137    
  18.732      19.277      19.718      19.998      20.067      19.888      19.437      18.716      17.745      16.573    
  15.273      13.940      12.682      11.612      10.832      10.421      10.421      10.832      11.612      12.682    
  15.116      16.265      17.341      18.268      18.994      19.488      19.743      19.772      19.602      19.277    
  18.845      18.356      17.839      17.308      16.774      16.244      15.723      15.212      14.711      14.227    
  13.768      13.353      13.000      12.729      12.559      12.501      12.559      12.729      13.000      13.353    
  13.768      14.227      14.711      15.212      15.723      16.244      16.774      17.308      17.839      18.356    
  18.845      19.277      19.602      19.772      19.743      19.488      18.994      18.268      17.341      16.265    
  15.116      13.984      12.966      12.156      11.635      11.456      11.635      12.156      12.966      13.984    
  15.880      16.834      17.690      18.393      18.907      19.217      19.327      19.260      19.047      18.732    
  18.356      17.946      17.512      17.066      16.611      16.152      15.687      15.213      14.736      14.266    
  13.820      13.422      13.094      12.861      12.740      12.740      12.861      13.094      13.422      13.820    
  14.266      14.736      15.213      15.687      16.152      16.611      17.066      17.512      17.946      18.356    
  18.732      19.047      19.260      19.327      19.217      18.907      18.393      17.690      16.834      15.880    
  14.898      13.972      13.185      12.612      12.310      12.310      12.612      13.185      13.972      14.898    
  16.231      16.996      17.653      18.163      18.507      18.683      18.704      18.597      18.396      18.137    
  17.839      17.512      17.165      16.799      16.417      16.014      15.585      15.132      14.665      14.203    
  13.768      13.390      13.095      12.908      12.844      12.908      13.095      13.390      13.768      14.203    
  14.665      15.132      15.585      16.014      16.417      16.799      17.165      17.512      17.839      18.137    
  18.396      18.597      18.704      18.683      18.507      18.163      17.653      16.996      16.231      15.411    
  14.603      13.876      13.298      12.927      12.799      12.927      13.298      13.876      14.603      15.411    
  16.199      16.792      17.280      17.639      17.862      17.958      17.946      17.853      17.707      17.523    
  17.308      17.066      16.799      16.506      16.180      15.813      15.402      14.957      14.494      14.038    
  13.618      13.268      13.016      12.884      12.884      13.016      13.268      13.618      14.038      14.494    
  14.957      15.402      15.813      16.180      16.506      16.799      17.066      17.308      17.523      17.707    
  17.853      17.946      17.958      17.862      17.639      17.280      16.792      16.199      15.536      14.856    
  14.213      13.667      13.270      13.061      13.061      13.270      13.667      14.213      14.856      15.536    
  15.831      16.282      16.640      16.895      17.050      17.120      17.126      17.087      17.012      16.907    
  16.774      16.611      16.417      16.180      15.889      15.540      15.135      14.690      14.230      13.784    
  13.388      13.077      12.877      12.809      12.877      13.077      13.388      13.784      14.230      14.690    
  15.135      15.540      15.889      16.180      16.417      16.611      16.774      16.907      17.012      17.087    
  17.126      17.120      17.050      16.895      16.640      16.282      15.831      15.310      14.754      14.207    
  13.717      13.327      13.077      12.991      13.077      13.327      13.717      14.207      14.754      15.310    
  15.195      15.540      15.813      16.014      16.152      16.244      16.300      16.327      16.327      16.300    
  16.244      16.152      16.014      15.813      15.540      15.195      14.789      14.345      13.891      13.466    
  13.106      12.845      12.707      12.707      12.845      13.106      13.466      13.891      14.345      14.789    
  15.195      15.540      15.813      16.014      16.152      16.244      16.300      16.327      16.327      16.300    
  16.244      16.152      16.014      15.813      15.540      15.195      14.789      14.345      13.891      13.466    
  13.106      12.845      12.707      12.707      12.845      13.106      13.466      13.891      14.345      14.789    
  14.370      14.650      14.884      15.078      15.241      15.379      15.496      15.592      15.665      15.712    
  15.723      15.687      15.585      15.402      15.135      14.789      14.383      13.944      13.509      13.117    
  12.805      12.604      12.535      12.604      12.805      13.117      13.509      13.944      14.383      14.789    
  15.135      15.402      15.585      15.687      15.723      15.712      15.665      15.592      15.496      15.379    
  15.241      15.078      14.884      14.650      14.370      14.046      13.689      13.317      12.957      12.637    
  12.384      12.222      12.166      12.222      12.384      12.637      12.957      13.317      13.689      14.046    
  13.442      13.698      13.934      14.153      14.358      14.551      14.731      14.894      15.036      15.146    
  15.212      15.213      15.132      14.957      14.690      14.345      13.944      13.523      13.120      12.774    
  12.522      12.389      12.389      12.522      12.774      13.120      13.523      13.944      14.345      14.690    
  14.957      15.132      15.213      15.212      15.146      15.036      14.894      14.731      14.551      14.358    
  14.153      13.934      13.698      13.442      13.163      12.863      12.553      12.247      11.966      11.732    
  11.563      11.475      11.475      11.563      11.732      11.966      12.247      12.553      12.863      13.163    
  12.492      12.756      13.015      13.271      13.525      13.775      14.016      14.243      14.443      14.606    
  14.711      14.736      14.665      14.494      14.230      13.891      13.509      13.120      12.763      12.476    
  12.291      12.226      12.291      12.476      12.763      13.120      13.509      13.891      14.230      14.494    
  14.665      14.736      14.711      14.606      14.443      14.243      14.016      13.775      13.525      13.271    
  13.015      12.756      12.492      12.223      11.949      11.674      11.406      11.156      10.941      10.774    
  10.668      10.631      10.668      10.774      10.941      11.156      11.406      11.674      11.949      12.223    
  11.575      11.861      12.153      12.452      12.756      13.061      13.360      13.641      13.892      14.095    
  14.227      14.266      14.203      14.038      13.784      13.466      13.117      12.774      12.476      12.256    
  12.139      12.139      12.256      12.476      12.774      13.117      13.466      13.784      14.038      14.203    
  14.266      14.227      14.095      13.892      13.641      13.360      13.061      12.756      12.452      12.153    
  11.861      11.575      11.296      11.022      10.757      10.506      10.274      10.070      9.9061      9.7902    
  9.7302      9.7302      9.7902      9.9061      10.070      10.274      10.506      10.757      11.022      11.296    
  10.719      11.034      11.364      11.707      12.061      12.417      12.765      13.093      13.385      13.618    
  13.768      13.820      13.768      13.618      13.388      13.106      12.805      12.522      12.291      12.139    
  12.087      12.139      12.291      12.522      12.805      13.106      13.388      13.618      13.768      13.820    
  13.768      13.618      13.385      13.093      12.765      12.417      12.061      11.707      11.364      11.034    
  10.719      10.420      10.135      9.8659      9.6146      9.3855      9.1844      9.0180      8.8933      8.8159    
  8.7897      8.8159      8.8933      9.0180      9.1844      9.3855      9.6146      9.8659      10.135      10.420    
  9.9402      10.288      10.657      11.043      11.442      11.843      12.235      12.602      12.927      13.184    
  13.353      13.422      13.390      13.268      13.077      12.845      12.604      12.389      12.226      12.139    
  12.139      12.226      12.389      12.604      12.845      13.077      13.268      13.390      13.422      13.353    
  13.184      12.927      12.602      12.235      11.843      11.442      11.043      10.657      10.288      9.9402    
  9.6147      9.3114      9.0301      8.7715      8.5378      8.3324      8.1599      8.0250      7.9323      7.8850    
  7.8850      7.9323      8.0250      8.1599      8.3324      8.5378      8.7715      9.0301      9.3114      9.6147    
  9.2475      9.6287      10.035      10.462      10.901      11.342      11.771      12.173      12.527      12.808    
  13.000      13.094      13.095      13.016      12.877      12.707      12.535      12.389      12.291      12.256    
  12.291      12.389      12.535      12.707      12.877      13.016      13.095      13.094      13.000      12.808    
  12.527      12.173      11.771      11.342      10.901      10.462      10.035      9.6287      9.2475      8.8936    
  8.5673      8.2684      7.9968      7.7532      7.5394      7.3581      7.2125      7.1057      7.0405      7.0185    
  7.0405      7.1057      7.2125      7.3581      7.5394      7.7532      7.9968      8.2684      8.5673      8.8936    
  8.6436      9.0571      9.4983      9.9614      10.437      10.914      11.378      11.813      12.196      12.506    
  12.729      12.861      12.908      12.884      12.809      12.707      12.604      12.522      12.476      12.476    
  12.522      12.604      12.707      12.809      12.884      12.908      12.861      12.729      12.506      12.196    
  11.813      11.378      10.914      10.437      9.9614      9.4983      9.0571      8.6436      8.2609      7.9102    
  7.5910      7.3030      7.0460      6.8206      6.6282      6.4707      6.3503      6.2688      6.2276      6.2276    
  6.2688      6.3503      6.4707      6.6282      6.8206      7.0460      7.3030      7.5910      7.9102      8.2609    
  8.1270      8.5710      9.0449      9.5418      10.052      10.564      11.062      11.532      11.948      12.294    
  12.559      12.740      12.844      12.884      12.877      12.845      12.805      12.774      12.763      12.774    
  12.805      12.845      12.877      12.884      12.844      12.740      12.559      12.294      11.948      11.532    
  11.062      10.564      10.052      9.5418      9.0449      8.5710      8.1270      7.7165      7.3411      7.0008    
  6.6948      6.4225      6.1837      5.9787      5.8086      5.6745      5.5777      5.5192      5.4996      5.5192    
  5.5777      5.6745      5.8086      5.9787      6.1837      6.4225      6.6948      7.0008      7.3411      7.7165    
  7.6944      8.1678      8.6730      9.2027      9.7472      10.294      10.830      11.337      11.794      12.185    
  12.501      12.740      12.908      13.016      13.077      13.106      13.117      13.120      13.120      13.117    
  13.106      13.077      13.016      12.908      12.740      12.501      12.185      11.794      11.337      10.830    
  10.294      9.7472      9.2027      8.6730      8.1678      7.6944      7.2570      6.8575      6.4960      6.1715    
  5.8831      5.6300      5.4117      5.2284      5.0809      4.9695      4.8949      4.8576      4.8576      4.8949    
  4.9695      5.0809      5.2284      5.4117      5.6300      5.8831      6.1715      6.4960      6.8575      7.2570    
  7.3427      7.8453      8.3820      8.9455      9.5257      10.111      10.687      11.238      11.742      12.185    
  12.559      12.861      13.095      13.268      13.388      13.466      13.509      13.523      13.509      13.466    
  13.388      13.268      13.095      12.861      12.559      12.185      11.742      11.238      10.687      10.111    
  9.5257      8.9455      8.3820      7.8453      7.3427      6.8786      6.4551      6.0723      5.7292      5.4244    
  5.1565      4.9246      4.7283      4.5675      4.4422      4.3527      4.2990      4.2811      4.2990      4.3527    
  4.4422      4.5675      4.7283      4.9246      5.1565      5.4244      5.7292      6.0723      6.4551      6.8786    
  7.0697      7.6028      8.1727      8.7721      9.3911      10.018      10.639      11.238      11.794      12.294    
  12.729      13.094      13.390      13.618      13.784      13.891      13.944      13.944      13.891      13.784    
  13.618      13.390      13.094      12.729      12.294      11.794      11.238      10.639      10.018      9.3911    
  8.7721      8.1727      7.6028      7.0697      6.5780      6.1298      5.7252      5.3629      5.0412      4.7583    
  4.5126      4.3032      4.1294      3.9909      3.8873      3.8185      3.7841      3.7841      3.8185      3.8873    
  3.9909      4.1294      4.3032      4.5126      4.7583      5.0412      5.3629      5.7252      6.1298      6.5780    
  6.8745      7.4404      8.0463      8.6848      9.3459      10.018      10.687      11.337      11.948      12.506    
  13.000      13.422      13.768      14.038      14.230      14.345      14.383      14.345      14.230      14.038    
  13.768      13.422      13.000      12.506      11.948      11.337      10.687      10.018      9.3459      8.6848    
  8.0463      7.4404      6.8745      6.3532      5.8786      5.4507      5.0680      4.7285      4.4297      4.1698    
  3.9471      3.7605      3.6091      3.4922      3.4093      3.3598      3.3433      3.3598      3.4093      3.4922    
  3.6091      3.7605      3.9471      4.1698      4.4297      4.7285      5.0680      5.4507      5.8786      6.3532    
  6.7571      7.3589      8.0040      8.6848      9.3911      10.111      10.830      11.532      12.196      12.808    
  13.353      13.820      14.203      14.494      14.690      14.789      14.789      14.690      14.494      14.203    
  13.820      13.353      12.808      12.196      11.532      10.830      10.111      9.3911      8.6848      8.0040    
  7.3589      6.7571      6.2033      5.6997      5.2461      4.8410      4.4820      4.1661      3.8910      3.6544    
  3.4547      3.2906      3.1608      3.0646      3.0009      2.9693      2.9693      3.0009      3.0646      3.1608    
  3.2906      3.4547      3.6544      3.8910      4.1661      4.4820      4.8410      5.2461      5.6997      6.2033    
  6.7179      7.3589      8.0463      8.7721      9.5257      10.294      11.062      11.813      12.527      13.184    
  13.768      14.266      14.665      14.957      15.135      15.195      15.135      14.957      14.665      14.266    
  13.768      13.184      12.527      11.813      11.062      10.294      9.5257      8.7721      8.0463      7.3589    
  6.7179      6.1283      5.5924      5.1102      4.6799      4.2989      3.9639      3.6719      3.4203      3.2068    
  3.0296      2.8871      2.7779      2.7008      2.6550      2.6398      2.6550      2.7008      2.7779      2.8871    
  3.0296      3.2068      3.4203      3.6719      3.9639      4.2988      4.6799      5.1102      5.5924      6.1283    
  6.7571      7.4404      8.1727      8.9455      9.7472      10.564      11.378      12.173      12.927      13.618    
  14.227      14.736      15.132      15.402      15.540      15.540      15.402      15.132      14.736      14.227    
  13.618      12.927      12.173      11.378      10.564      9.7472      8.9455      8.1727      7.4404      6.7571    
  6.1283      5.5567      5.0423      4.5835      4.1774      3.8206      3.5097      3.2413      3.0127      2.8216    
  2.6659      2.5438      2.4538      2.3945      2.3652      2.3652      2.3945      2.4538      2.5438      2.6659    
  2.8216      3.0127      3.2413      3.5097      3.8206      4.1774      4.5835      5.0423      5.5567      6.1283    
  6.8745      7.6028      8.3820      9.2027      10.052      10.914      11.771      12.602      13.385      14.095    
  14.711      15.213      15.585      15.813      15.889      15.813      15.585      15.213      14.711      14.095    
  13.385      12.602      11.771      10.914      10.052      9.2027      8.3820      7.6028      6.8745      6.2033    
  5.5924      5.0423      4.5514      4.1169      3.7351      3.4023      3.1149      2.8694      2.6631      2.4934    
  2.3580      2.2550      2.1827      2.1399      2.1257      2.1399      2.1827      2.2550      2.3580      2.4934    
  2.6631      2.8694      3.1149      3.4023      3.7351      4.1169      4.5514      5.0423      5.5924      6.2033    
  7.0697      7.8453      8.6730      9.5418      10.437      11.342      12.235      13.093      13.892      14.606    
  15.212      15.687      16.014      16.180      16.180      16.014      15.687      15.212      14.606      13.892    
  13.093      12.235      11.342      10.437      9.5418      8.6730      7.8453      7.0697      6.3532      5.6997    
  5.1102      4.5835      4.1169      3.7067      3.3489      3.0395      2.7749      2.5516      2.3665      2.2170    
  2.1006      2.0153      1.9594      1.9318      1.9318      1.9594      2.0153      2.1006      2.2170      2.3665    
  2.5516      2.7749      3.0395      3.3489      3.7067      4.1169      4.5835      5.1102      5.6997      6.3532    
  7.3427      8.1678      9.0449      9.9614      10.901      11.843      12.765      13.641      14.443      15.146    
  15.723      16.152      16.417      16.506      16.417      16.152      15.723      15.146      14.443      13.641    
  12.765      11.843      10.901      9.9614      9.0449      8.1678      7.3427      6.5780      5.8786      5.2461    
  4.6799      4.1774      3.7351      3.3489      3.0145      2.7279      2.4853      2.2831      2.1182      1.9876    
  1.8889      1.8199      1.7792      1.7658      1.7792      1.8199      1.8889      1.9876      2.1182      2.2831    
  2.4853      2.7279      3.0145      3.3489      3.7351      4.1774      4.6799      5.2461      5.8786      6.5780    
  7.6944      8.5710      9.4983      10.462      11.442      12.417      13.360      14.243      15.036      15.712    
  16.244      16.611      16.799      16.799      16.611      16.244      15.712      15.036      14.243      13.360    
  12.417      11.442      10.462      9.4983      8.5710      7.6944      6.8786      6.1298      5.4507      4.8410    
  4.2989      3.8206      3.4023      3.0395      2.7279      2.4633      2.2418      2.0597      1.9136      1.8007    
  1.7183      1.6646      1.6381      1.6381      1.6646      1.7183      1.8007      1.9136      2.0597      2.2418    
  2.4633      2.7279      3.0395      3.4023      3.8206      4.2988      4.8410      5.4507      6.1298      6.8786    
  8.1270      9.0571      10.035      11.043      12.061      13.061      14.016      14.894      15.665      16.300    
  16.774      17.066      17.165      17.066      16.774      16.300      15.665      14.894      14.016      13.061    
  12.061      11.043      10.035      9.0571      8.1270      7.2570      6.4551      5.7252      5.0680      4.4820    
  3.9639      3.5097      3.1149      2.7749      2.4853      2.2418      2.0403      1.8771      1.7487      1.6521    
  1.5849      1.5454      1.5323      1.5454      1.5849      1.6521      1.7487      1.8771      2.0403      2.2418    
  2.4853      2.7749      3.1149      3.5097      3.9639      4.4820      5.0680      5.7252      6.4551      7.2570    
  8.6436      9.6287      10.657      11.707      12.756      13.775      14.731      15.592      16.327      16.907    
  17.308      17.512      17.512      17.308      16.907      16.327      15.592      14.731      13.775      12.756    
  11.707      10.657      9.6287      8.6436      7.7165      6.8575      6.0723      5.3629      4.7285      4.1661    
  3.6719      3.2413      2.8694      2.5516      2.2831      2.0597      1.8771      1.7315      1.6194      1.5381    
  1.4852      1.4591      1.4591      1.4852      1.5381      1.6194      1.7315      1.8771      2.0597      2.2831    
  2.5516      2.8694      3.2413      3.6719      4.1661      4.7285      5.3629      6.0723      6.8575      7.7165    
  9.2475      10.288      11.364      12.452      13.525      14.551      15.496      16.327      17.012      17.523    
  17.839      17.946      17.839      17.523      17.012      16.327      15.496      14.551      13.525      12.452    
  11.364      10.288      9.2475      8.2609      7.3411      6.4960      5.7292      5.0412      4.4297      3.8910    
  3.4203      3.0127      2.6631      2.3665      2.1182      1.9136      1.7487      1.6194      1.5226      1.4555    
  1.4161      1.4031      1.4161      1.4555      1.5226      1.6194      1.7487      1.9136      2.1182      2.3665    
  2.6631      3.0127      3.4203      3.8910      4.4297      5.0412      5.7292      6.4960      7.3411      8.2609    
  9.9402      11.034      12.153      13.271      14.358      15.379      16.300      17.087      17.707      18.137    
  18.356      18.356      18.137      17.707      17.087      16.300      15.379      14.358      13.271      12.153    
  11.034      9.9402      8.8936      7.9102      7.0008      6.1715      5.4244      4.7583      4.1698      3.6544    
  3.2068      2.8216      2.4934      2.2170      1.9876      1.8007      1.6521      1.5381      1.4555      1.4019    
  1.3755      1.3755      1.4019      1.4555      1.5381      1.6521      1.8007      1.9876      2.2170      2.4934    
  2.8216      3.2068      3.6544      4.1698      4.7583      5.4244      6.1715      7.0008      7.9102      8.8936    
  10.719      11.861      13.015      14.153      15.241      16.244      17.126      17.853      18.396      18.732    
  18.845      18.732      18.396      17.853      17.126      16.244      15.241      14.153      13.015      11.861    
  10.719      9.6147      8.5673      7.5910      6.6948      5.8831      5.1565      4.5126      3.9471      3.4547    
  3.0296      2.6659      2.3580      2.1006      1.8889      1.7183      1.5849      1.4852      1.4161      1.3755    
  1.3622      1.3755      1.4161      1.4852      1.5849      1.7183      1.8889      2.1006      2.3580      2.6659    