Silicon                                 
   5.43000000000000     
     0.503616    0.503616    0.000000
     0.000000    0.503616    0.503616
     0.503616    0.000000    0.503616
   Si
     2
Direct
  0.000000  0.000000  0.000000
  0.250000  0.250000  0.250000
 
   60   60   60
 -.73832850260E+00 -.39221617946E+00 0.61119391267E+00 0.21726660963E+01 0.41439855285E+01
 0.63495526452E+01 0.86095106780E+01 0.10759836094E+02 0.12666267747E+02 0.14231119005E+02
 0.15394087019E+02 0.16129397080E+02 0.16441651606E+02 0.16361802074E+02 0.15943351528E+02
 0.15257956636E+02 0.14389496085E+02 0.13426360044E+02 0.12451605835E+02 0.11517637480E+02
 0.10649878548E+02 0.98642484556E+01 0.91684402952E+01 0.85638367094E+01 0.80479753531E+01
 0.76168990760E+01 0.72669124751E+01 0.69955260859E+01 0.68016246029E+01 0.66850881458E+01
 0.66461903543E+01 0.66850880152E+01 0.68016244261E+01 0.69955259844E+01 0.72669125398E+01
 0.76168993165E+01 0.80479756919E+01 0.85638370251E+01 0.91684404884E+01 0.98642485007E+01
 0.10649878498E+02 0.11517637424E+02 0.12451605830E+02 0.13426360066E+02 0.14389496032E+02
 0.15257956394E+02 0.15943351060E+02 0.16361801496E+02 0.16441651190E+02 0.16129397169E+02
 0.15394087881E+02 0.14231120697E+02 0.12666270046E+02 0.10759838542E+02 0.86095127416E+01
 0.63495539121E+01 0.41439858690E+01 0.21726657096E+01 0.61119323427E+00 -.39221667214E+00
 -.39221617946E+00 0.31543545855E+00 0.16587224240E+01 0.35052330486E+01 0.56826123514E+01
 0.80031038816E+01 0.10286903376E+02 0.12380063990E+02 0.14164836839E+02 0.15562769031E+02
 0.16532696878E+02 0.17066379651E+02 0.17183889469E+02 0.16929532592E+02 0.16367802395E+02
 0.15578298569E+02 0.14648896166E+02 0.13667389129E+02 0.12704889571E+02 0.11795634392E+02
 0.10959911810E+02 0.10209502367E+02 0.95490003983E+01 0.89780286198E+01 0.84936741700E+01
 0.80925609924E+01 0.77721892759E+01 0.75314360581E+01 0.73703519867E+01 0.72895519763E+01
 0.72895519046E+01 0.73703518154E+01 0.75314358955E+01 0.77721892363E+01 0.80925611356E+01
 0.84936744712E+01 0.89780289858E+01 0.95490007187E+01 0.10209502572E+02 0.10959911899E+02
 0.11795634418E+02 0.12704889591E+02 0.13667389147E+02 0.14648896117E+02 0.15578298354E+02
 0.16367801951E+02 0.16929531977E+02 0.17183888889E+02 0.17066379415E+02 0.16532697286E+02
 0.15562770231E+02 0.14164838731E+02 0.12380066220E+02 0.10286905443E+02 0.80031053201E+01
 0.56826129093E+01 0.35052327881E+01 0.16587216931E+01 0.31543474113E+00 -.39221647203E+00
 0.61119391267E+00 0.16587224240E+01 0.32854330023E+01 0.53329252679E+01 0.76150472470E+01
 0.99432067942E+01 0.12147811680E+02 0.14092499704E+02 0.15680383397E+02 0.16853838947E+02
 0.17590606619E+02 0.17898840712E+02 0.17812594637E+02 0.17387778289E+02 0.16697659534E+02
 0.15826913662E+02 0.14863950325E+02 0.13890518495E+02 0.12955254114E+02 0.12082332645E+02
 0.11287318234E+02 0.10578140818E+02 0.99568938165E+01 0.94221729954E+01 0.89713280679E+01
 0.86021379842E+01 0.83136588431E+01 0.81062568755E+01 0.79810588277E+01 0.79391753692E+01
 0.79810587035E+01 0.81062566941E+01 0.83136587048E+01 0.86021379728E+01 0.89713282119E+01
 0.94221732590E+01 0.99568941241E+01 0.10578141096E+02 0.11287318444E+02 0.12082332793E+02
 0.12955254224E+02 0.13890518572E+02 0.14863950331E+02 0.15826913524E+02 0.16697659189E+02
 0.17387777743E+02 0.17812594010E+02 0.17898840225E+02 0.17590606524E+02 0.16853839426E+02
 0.15680384466E+02 0.14092501172E+02 0.12147813197E+02 0.99432079705E+01 0.76150478024E+01
 0.53329251433E+01 0.32854323869E+01 0.16587216783E+01 0.61119341864E+00 0.24947464091E+00
 0.21726660963E+01 0.35052330486E+01 0.53329252679E+01 0.74815382342E+01 0.97625741869E+01
 0.11997086191E+02 0.14033545086E+02 0.15757721596E+02 0.17095155519E+02 0.18008589466E+02
 0.18493226579E+02 0.18571896705E+02 0.18290811103E+02 0.17715340757E+02 0.16924780609E+02
 0.16005461044E+02 0.15042394411E+02 0.14099052178E+02 0.13204855956E+02 0.12378541277E+02
 0.11631181909E+02 0.10967484826E+02 0.10387882226E+02 0.98908170826E+01 0.94746610886E+01
 0.91388861256E+01 0.88843670765E+01 0.87129511762E+01 0.86266167801E+01 0.86266167293E+01
 0.87129510447E+01 0.88843669172E+01 0.91388860012E+01 0.94746610463E+01 0.98908171394E+01
 0.10387882369E+02 0.10967485026E+02 0.11631182137E+02 0.12378541512E+02 0.13204856183E+02
 0.14099052373E+02 0.15042394531E+02 0.16005461033E+02 0.16924780417E+02 0.17715340372E+02
 0.18290810580E+02 0.18571896166E+02 0.18493226182E+02 0.18008589353E+02 0.17095155753E+02
 0.15757722126E+02 0.14033545749E+02 0.11997086770E+02 0.97625744866E+01 0.74815381635E+01
 0.53329248769E+01 0.35052325123E+01 0.21726656448E+01 0.14697049257E+01 0.14697051009E+01
 0.41439855285E+01 0.56826123514E+01 0.76150472470E+01 0.97625741869E+01 0.11944928046E+02
 0.14000883738E+02 0.15801711733E+02 0.17256910753E+02 0.18313831785E+02 0.18953887590E+02
 0.19187797174E+02 0.19051147721E+02 0.18600224798E+02 0.17907252755E+02 0.17054232853E+02
 0.16125285534E+02 0.15193578340E+02 0.14296491293E+02 0.13455127564E+02 0.12683236680E+02
 0.11988013945E+02 0.11371854180E+02 0.10834545730E+02 0.10375325901E+02 0.99943240365E+01
 0.96931401267E+01 0.94745772524E+01 0.93417853630E+01 0.92972144294E+01 0.93417853240E+01
 0.94745771747E+01 0.96931400148E+01 0.99943239045E+01 0.10375325776E+02 0.10834545648E+02
 0.11371854180E+02 0.11988014053E+02 0.12683236897E+02 0.13455127860E+02 0.14296491611E+02
 0.15193578607E+02 0.16125285682E+02 0.17054232835E+02 0.17907252565E+02 0.18600224467E+02
 0.19051147311E+02 0.19187796757E+02 0.18953887230E+02 0.18313831522E+02 0.17256910590E+02
 0.15801711646E+02 0.14000883684E+02 0.11944927984E+02 0.97625740902E+01 0.76150471135E+01
 0.56826122019E+01 0.41439853981E+01 0.31517585537E+01 0.28088904119E+01 0.31517586297E+01
 0.63495526452E+01 0.80031038816E+01 0.99432067942E+01 0.11997086191E+02 0.14000883738E+02
 0.15816005034E+02 0.17338214055E+02 0.18500071409E+02 0.19268870207E+02 0.19642551399E+02
 0.19645323446E+02 0.19323477713E+02 0.18740897233E+02 0.17973469153E+02 0.17102056479E+02
 0.16203092493E+02 0.15323199220E+02 0.14485374708E+02 0.13705378643E+02 0.12992521567E+02
 0.12351055055E+02 0.11782188782E+02 0.11286188332E+02 0.10864025855E+02 0.10518219985E+02
 0.10252759573E+02 0.10072278166E+02 0.99808491810E+01 0.99808492064E+01 0.10072278219E+02
 0.10252759599E+02 0.10518219930E+02 0.10864025701E+02 0.11286188116E+02 0.11782188585E+02
 0.12351054970E+02 0.12992521657E+02 0.13705378910E+02 0.14485375089E+02 0.15323199612E+02
 0.16203092795E+02 0.17102056626E+02 0.17973469135E+02 0.18740897087E+02 0.19323477489E+02
 0.19645323182E+02 0.19642551103E+02 0.19268869866E+02 0.18500071011E+02 0.17338213620E+02
 0.15816004623E+02 0.14000883438E+02 0.11997086081E+02 0.99432069047E+01 0.80031041707E+01
 0.63495530047E+01 0.51423868993E+01 0.45051017240E+01 0.45051016119E+01 0.51423866068E+01
 0.86095106780E+01 0.10286903376E+02 0.12147811680E+02 0.14033545086E+02 0.15801711733E+02
 0.17338214055E+02 0.18562715250E+02 0.19428908413E+02 0.19921753456E+02 0.20053586992E+02
 0.19860049081E+02 0.19395756329E+02 0.18729128071E+02 0.17935929405E+02 0.17091463204E+02
 0.16249619933E+02 0.15435423650E+02 0.14665875278E+02 0.13951836075E+02 0.13299085491E+02
 0.12710123309E+02 0.12186240380E+02 0.11729316951E+02 0.11342900503E+02 0.11032338253E+02
 0.10804018768E+02 0.10664035620E+02 0.10616830134E+02 0.10664035758E+02 0.10804018967E+02
 0.11032338398E+02 0.11342900504E+02 0.11729316790E+02 0.12186240126E+02 0.12710123087E+02
 0.13299085424E+02 0.13951836228E+02 0.14665875626E+02 0.15435424093E+02 0.16249620345E+02
 0.17091463483E+02 0.17935929517E+02 0.18729128047E+02 0.19395756231E+02 0.19860048959E+02
 0.20053586855E+02 0.19921753271E+02 0.19428908140E+02 0.18562714888E+02 0.17338213674E+02
 0.15801711465E+02 0.14033545074E+02 0.12147812013E+02 0.10286904029E+02 0.86095115002E+01
 0.72725874484E+01 0.64099377753E+01 0.61117678955E+01 0.64099373240E+01 0.72725866932E+01
 0.10759836094E+02 0.12380063990E+02 0.14092499704E+02 0.15757721596E+02 0.17256910753E+02
 0.18500071409E+02 0.19428908413E+02 0.20015925542E+02 0.20261531416E+02 0.20190362251E+02
 0.19847158568E+02 0.19291902097E+02 0.18593836873E+02 0.17824400331E+02 0.17041157829E+02
 0.16271149641E+02 0.15531832007E+02 0.14834937003E+02 0.14187264004E+02 0.13592270111E+02
 0.13052075443E+02 0.12569364214E+02 0.12148617027E+02 0.11796188786E+02 0.11520380227E+02
 0.11330112552E+02 0.11232856833E+02 0.11232856948E+02 0.11330112844E+02 0.11520380569E+02
 0.11796189033E+02 0.12148617087E+02 0.12569364094E+02 0.13052075240E+02 0.13592269965E+02
 0.14187264033E+02 0.14834937245E+02 0.15531832410E+02 0.16271150088E+02 0.17041158197E+02
 0.17824400544E+02 0.18593836926E+02 0.19291902044E+02 0.19847158479E+02 0.20190362171E+02
 0.20261531347E+02 0.20015925455E+02 0.19428908291E+02 0.18500071285E+02 0.17256910725E+02
 0.15757721793E+02 0.14092500230E+02 0.12380064853E+02 0.10759837176E+02 0.93778945866E+01
 0.83687315861E+01 0.78359331733E+01 0.78359328824E+01 0.83687307962E+01 0.93778935152E+01
 0.12666267747E+02 0.14164836839E+02 0.15680383397E+02 0.17095155519E+02 0.18313831785E+02
 0.19268870207E+02 0.19921753456E+02 0.20261531416E+02 0.20301903245E+02 0.20077464554E+02
 0.19639148211E+02 0.19048651316E+02 0.18371854217E+02 0.17666276661E+02 0.16960317820E+02
 0.16271149641E+02 0.15610657628E+02 0.14986040929E+02 0.14401219953E+02 0.13858764054E+02
 0.13361686310E+02 0.12914187818E+02 0.12523857989E+02 0.12201590056E+02 0.11959645621E+02
 0.11809224035E+02 0.11758148576E+02 0.11809224294E+02 0.11959646044E+02 0.12201590494E+02
 0.12523858306E+02 0.12914187948E+02 0.13361686280E+02 0.13858763966E+02 0.14401219932E+02
 0.14986041064E+02 0.15610657933E+02 0.16271150051E+02 0.16960318227E+02 0.17666276962E+02
 0.18371854355E+02 0.19048651296E+02 0.19639148086E+02 0.20077464394E+02 0.20301903106E+02
 0.20261531329E+02 0.19921753434E+02 0.19268870272E+02 0.18313831979E+02 0.17095155904E+02
 0.15680384029E+02 0.14164837722E+02 0.12666268806E+02 0.11314602808E+02 0.10237280148E+02
 0.95422765243E+01 0.93020902371E+01 0.95422760216E+01 0.10237279260E+02 0.11314601732E+02
 0.14231119005E+02 0.15562769031E+02 0.16853838947E+02 0.18008589466E+02 0.18953887590E+02
 0.19642551399E+02 0.20053586992E+02 0.20190362251E+02 0.20077464554E+02 0.19756533335E+02
 0.19281076003E+02 0.18710331240E+02 0.18098799098E+02 0.17474825915E+02 0.16854649396E+02
 0.16249619933E+02 0.15666678924E+02 0.15109620189E+02 0.14580877520E+02 0.14082187845E+02
 0.13617427381E+02 0.13195568232E+02 0.12829977265E+02 0.12536411577E+02 0.12330286374E+02
 0.12223842532E+02 0.12223842668E+02 0.12330286739E+02 0.12536412062E+02 0.12829977737E+02
 0.13195568584E+02 0.13617427573E+02 0.14082187910E+02 0.14580877544E+02 0.15109620272E+02
 0.15666679130E+02 0.16249620268E+02 0.16854649802E+02 0.17474826297E+02 0.18098799361E+02
 0.18710331320E+02 0.19281075894E+02 0.19756533080E+02 0.20077464234E+02 0.20190361957E+02
 0.20053586808E+02 0.19642551383E+02 0.18953887771E+02 0.18008589851E+02 0.16853839516E+02
 0.15562769740E+02 0.14231119785E+02 0.12969935625E+02 0.11894276967E+02 0.11109110677E+02
 0.10694740479E+02 0.10694740326E+02 0.11109110246E+02 0.11894276323E+02 0.12969934863E+02
 0.15394087019E+02 0.16532696878E+02 0.17590606619E+02 0.18493226579E+02 0.19187797174E+02
 0.19645323446E+02 0.19860049081E+02 0.19847158568E+02 0.19639148211E+02 0.19281076003E+02
 0.18824865752E+02 0.18319960533E+02 0.17792813096E+02 0.17258173840E+02 0.16726247538E+02
 0.16203092493E+02 0.15691766067E+02 0.15193479675E+02 0.14707719146E+02 0.14237962556E+02
 0.13793943291E+02 0.13391048964E+02 0.13048346293E+02 0.12785635340E+02 0.12620153277E+02
 0.12563610940E+02 0.12620153506E+02 0.12785635742E+02 0.13048346770E+02 0.13391049413E+02
 0.13793943636E+02 0.14237962769E+02 0.14707719258E+02 0.15193479757E+02 0.15691766203E+02
 0.16203092744E+02 0.16726247912E+02 0.17258174285E+02 0.17792813514E+02 0.18319960808E+02
 0.18824865798E+02 0.19281075793E+02 0.19639147790E+02 0.19847158046E+02 0.19860048595E+02
 0.19645323121E+02 0.19187797081E+02 0.18493226719E+02 0.17590606929E+02 0.16532697260E+02
 0.15394087373E+02 0.14266118427E+02 0.13248413799E+02 0.12437610043E+02 0.11914843175E+02
 0.11734247471E+02 0.11914843156E+02 0.12437609977E+02 0.13248413647E+02 0.14266118165E+02
 0.16129397080E+02 0.17066379651E+02 0.17898840712E+02 0.18571896705E+02 0.19051147721E+02
 0.19323477713E+02 0.19395756329E+02 0.19291902097E+02 0.19048651316E+02 0.18710331240E+02
 0.18319960533E+02 0.17900395893E+02 0.17464442580E+02 0.17020661073E+02 0.16573689606E+02
 0.16125285534E+02 0.15674320693E+02 0.15217733000E+02 0.14757813498E+02 0.14304170072E+02
 0.13873423405E+02 0.13487378186E+02 0.13169985481E+02 0.12943680353E+02 0.12825806925E+02
 0.12825807018E+02 0.12943680614E+02 0.13169985857E+02 0.13487378603E+02 0.13873423787E+02
 0.14304170360E+02 0.14757813674E+02 0.15217733094E+02 0.15674320777E+02 0.16125285696E+02
 0.16573689910E+02 0.17020661531E+02 0.17464443128E+02 0.17900396407E+02 0.18319960868E+02
 0.18710331282E+02 0.19048651030E+02 0.19291901544E+02 0.19395755652E+02 0.19323477080E+02
 0.19051147265E+02 0.18571896477E+02 0.17898840661E+02 0.17066379659E+02 0.16129397017E+02
 0.15159875266E+02 0.14240674277E+02 0.13456755545E+02 0.12884846992E+02 0.12583176295E+02
 0.12583176420E+02 0.12884847322E+02 0.13456755960E+02 0.14240674640E+02 0.15159875482E+02
 0.16441651606E+02 0.17183889469E+02 0.17812594637E+02 0.18290811103E+02 0.18600224798E+02
 0.18740897233E+02 0.18729128071E+02 0.18593836873E+02 0.18371854217E+02 0.18098799098E+02
 0.17792813096E+02 0.17464442580E+02 0.17120241197E+02 0.16763019318E+02 0.16392756110E+02
 0.16005461044E+02 0.15595105796E+02 0.15161818890E+02 0.14714013974E+02 0.14268471988E+02
 0.13848785973E+02 0.13482381419E+02 0.13196629293E+02 0.13014760059E+02 0.12952316409E+02
 0.13014760191E+02 0.13196629537E+02 0.13482381738E+02 0.13848786310E+02 0.14268472282E+02
 0.14714014176E+02 0.15161818988E+02 0.15595105830E+02 0.16005461099E+02 0.16392756288E+02
 0.16763019694E+02 0.17120241774E+02 0.17464443273E+02 0.17792813750E+02 0.18098799536E+02
 0.18371854309E+02 0.18593836587E+02 0.18729127490E+02 0.18740896518E+02 0.18600224123E+02
 0.18290810586E+02 0.17812594291E+02 0.17183889208E+02 0.16441651293E+02 0.15639512084E+02
 0.14843375868E+02 0.14124733244E+02 0.13552349643E+02 0.13183483776E+02 0.13056097706E+02
 0.13183484167E+02 0.13552350306E+02 0.14124733992E+02 0.14843376526E+02 0.15639512559E+02
 0.16361802074E+02 0.16929532592E+02 0.17387778289E+02 0.17715340757E+02 0.17907252755E+02
 0.17973469153E+02 0.17935929405E+02 0.17824400331E+02 0.17666276661E+02 0.17474825915E+02
 0.17258173840E+02 0.17020661073E+02 0.16763019318E+02 0.16483165493E+02 0.16174288710E+02
 0.15826913662E+02 0.15438063220E+02 0.15013818920E+02 0.14569861372E+02 0.14130310087E+02
 0.13724965000E+02 0.13385372163E+02 0.13140380717E+02 0.13011956590E+02 0.13011956632E+02
 0.13140380843E+02 0.13385372367E+02 0.13724965259E+02 0.14130310356E+02 0.14569861590E+02
 0.15013819037E+02 0.15438063228E+02 0.15826913615E+02 0.16174288715E+02 0.16483165674E+02
 0.16763019758E+02 0.17020661769E+02 0.17258174685E+02 0.17474826724E+02 0.17666277236E+02
 0.17824400535E+02 0.17935929214E+02 0.17973468661E+02 0.17907252132E+02 0.17715340169E+02
 0.17387777832E+02 0.16929532254E+02 0.16361801757E+02 0.15721349029E+02 0.15057670076E+02
 0.14428086410E+02 0.13891223223E+02 0.13499721512E+02 0.13293295858E+02 0.13293296062E+02
 0.13499722061E+02 0.13891223957E+02 0.14428087140E+02 0.15057670666E+02 0.15721349447E+02
 0.15943351528E+02 0.16367802395E+02 0.16697659534E+02 0.16924780609E+02 0.17054232853E+02
 0.17102056479E+02 0.17091463204E+02 0.17041157829E+02 0.16960317820E+02 0.16854649396E+02
 0.16726247538E+02 0.16573689606E+02 0.16392756110E+02 0.16174288710E+02 0.15905096578E+02
 0.15578298569E+02 0.15196561513E+02 0.14773145470E+02 0.14331237407E+02 0.13901569888E+02
 0.13518634718E+02 0.13216080643E+02 0.13022046885E+02 0.12955192546E+02 0.13022046922E+02
 0.13216080735E+02 0.13518634880E+02 0.13901570112E+02 0.14331237643E+02 0.14773145645E+02
 0.15196561567E+02 0.15578298493E+02 0.15905096439E+02 0.16174288642E+02 0.16392756261E+02
 0.16573690074E+02 0.16726248315E+02 0.16854650358E+02 0.16960318763E+02 0.17041158540E+02
 0.17091463545E+02 0.17102056435E+02 0.17054232526E+02 0.16924780170E+02 0.16697659143E+02
 0.16367802135E+02 0.15943351380E+02 0.15446196312E+02 0.14910574236E+02 0.14379746467E+02
 0.13901076974E+02 0.13520156896E+02 0.13274845149E+02 0.13190160339E+02 0.13274845398E+02
 0.13520157304E+02 0.13901077406E+02 0.14379746807E+02 0.14910574446E+02 0.15446196439E+02
 0.15257956636E+02 0.15578298569E+02 0.15826913662E+02 0.16005461044E+02 0.16125285534E+02
 0.16203092493E+02 0.16249619933E+02 0.16271149641E+02 0.16271149641E+02 0.16249619933E+02
 0.16203092493E+02 0.16125285534E+02 0.16005461044E+02 0.15826913662E+02 0.15578298569E+02
 0.15257956636E+02 0.14875482761E+02 0.14451619470E+02 0.14016381131E+02 0.13605604297E+02
 0.13256407263E+02 0.13002253939E+02 0.12868395866E+02 0.12868395855E+02 0.13002253927E+02
 0.13256407301E+02 0.13605604426E+02 0.14016381346E+02 0.14451619708E+02 0.14875482926E+02
 0.15257956648E+02 0.15578298417E+02 0.15826913428E+02 0.16005460885E+02 0.16125285619E+02
 0.16203092930E+02 0.16249620714E+02 0.16271150634E+02 0.16271150634E+02 0.16249620714E+02
 0.16203092930E+02 0.16125285619E+02 0.16005460885E+02 0.15826913428E+02 0.15578298417E+02
 0.15257956648E+02 0.14875482926E+02 0.14451619708E+02 0.14016381346E+02 0.13605604426E+02
 0.13256407301E+02 0.13002253927E+02 0.12868395855E+02 0.12868395866E+02 0.13002253939E+02
 0.13256407263E+02 0.13605604297E+02 0.14016381131E+02 0.14451619470E+02 0.14875482761E+02
 0.14389496085E+02 0.14648896166E+02 0.14863950325E+02 0.15042394411E+02 0.15193578340E+02
 0.15323199220E+02 0.15435423650E+02 0.15531832007E+02 0.15610657628E+02 0.15666678924E+02
 0.15691766067E+02 0.15674320693E+02 0.15595105796E+02 0.15438063220E+02 0.15196561513E+02
 0.14875482761E+02 0.14491707021E+02 0.14072831075E+02 0.13654213377E+02 0.13274711800E+02
 0.12971717850E+02 0.12776226522E+02 0.12708683674E+02 0.12776226437E+02 0.12971717744E+02
 0.13274711762E+02 0.13654213470E+02 0.14072831291E+02 0.14491707278E+02 0.14875482938E+02
 0.15196561512E+02 0.15438063022E+02 0.15595105489E+02 0.15674320439E+02 0.15691766044E+02
 0.15666679246E+02 0.15610658293E+02 0.15531832893E+02 0.15435424560E+02 0.15323199957E+02
 0.15193578783E+02 0.15042394554E+02 0.14863950270E+02 0.14648896073E+02 0.14389496108E+02
 0.14086151481E+02 0.13748485529E+02 0.13394762151E+02 0.13049795873E+02 0.12741683365E+02
 0.12497904035E+02 0.12341436724E+02 0.12287506151E+02 0.12341436504E+02 0.12497903616E+02
 0.12741682796E+02 0.13049795236E+02 0.13394761555E+02 0.13748485081E+02 0.14086151248E+02
 0.13426360044E+02 0.13667389129E+02 0.13890518495E+02 0.14099052178E+02 0.14296491293E+02
 0.14485374708E+02 0.14665875278E+02 0.14834937003E+02 0.14986040929E+02 0.15109620189E+02
 0.15193479675E+02 0.15217733000E+02 0.15161818890E+02 0.15013818920E+02 0.14773145470E+02
 0.14451619470E+02 0.14072831075E+02 0.13669791804E+02 0.13281135048E+02 0.12946358013E+02
 0.12700770065E+02 0.12570877418E+02 0.12570877328E+02 0.12700769839E+02 0.12946357766E+02
 0.13281134907E+02 0.13669791847E+02 0.14072831289E+02 0.14451619758E+02 0.14773145691E+02
 0.15013818957E+02 0.15161818708E+02 0.15217732664E+02 0.15193479335E+02 0.15109620015E+02
 0.14986041041E+02 0.14834937424E+02 0.14665875922E+02 0.14485375414E+02 0.14296491888E+02
 0.14099052545E+02 0.13890518610E+02 0.13667389071E+02 0.13426359956E+02 0.13163760695E+02
 0.12880956126E+02 0.12586571271E+02 0.12295617631E+02 0.12027418584E+02 0.11802739864E+02
 0.11640657225E+02 0.11555698415E+02 0.11555698222E+02 0.11640656685E+02 0.11802739088E+02
 0.12027417730E+02 0.12295616862E+02 0.12586570717E+02 0.12880955844E+02 0.13163760656E+02
 0.12451605835E+02 0.12704889571E+02 0.12955254114E+02 0.13204855956E+02 0.13455127564E+02
 0.13705378643E+02 0.13951836075E+02 0.14187264004E+02 0.14401219953E+02 0.14580877520E+02
 0.14707719146E+02 0.14757813498E+02 0.14714013974E+02 0.14569861372E+02 0.14331237407E+02
 0.14016381131E+02 0.13654213377E+02 0.13281135048E+02 0.12936682159E+02 0.12658604065E+02
 0.12478039218E+02 0.12415470500E+02 0.12478038955E+02 0.12658603640E+02 0.12936681735E+02
 0.13281134781E+02 0.13654213358E+02 0.14016381349E+02 0.14331237755E+02 0.14569861693E+02
 0.14714014121E+02 0.14757813398E+02 0.14707718828E+02 0.14580877101E+02 0.14401219595E+02
 0.14187263849E+02 0.13951836188E+02 0.13705378990E+02 0.13455128025E+02 0.13204856375E+02
 0.12955254358E+02 0.12704889585E+02 0.12451605663E+02 0.12194116469E+02 0.11933180920E+02
 0.11671431109E+02 0.11415890061E+02 0.11178061925E+02 0.10972051078E+02 0.10812214622E+02
 0.10710811465E+02 0.10676049362E+02 0.10710811069E+02 0.10812213941E+02 0.10972050299E+02
 0.11178061247E+02 0.11415889633E+02 0.11671430984E+02 0.11933181040E+02 0.12194116698E+02
 0.11517637480E+02 0.11795634392E+02 0.12082332645E+02 0.12378541277E+02 0.12683236680E+02
 0.12992521567E+02 0.13299085491E+02 0.13592270111E+02 0.13858764054E+02 0.14082187845E+02
 0.14237962556E+02 0.14304170072E+02 0.14268471988E+02 0.14130310087E+02 0.13901569888E+02
 0.13605604297E+02 0.13274711800E+02 0.12946358013E+02 0.12658604065E+02 0.12445331634E+02
 0.12331910141E+02 0.12331909956E+02 0.12445331137E+02 0.12658603410E+02 0.12946357401E+02
 0.13274711413E+02 0.13605604236E+02 0.13901570143E+02 0.14130310542E+02 0.14268472461E+02
 0.14304170381E+02 0.14237962583E+02 0.14082187577E+02 0.13858763584E+02 0.13592269601E+02
 0.13299085110E+02 0.12992521427E+02 0.12683236792E+02 0.12378541547E+02 0.12082332918E+02
 0.11795634514E+02 0.11517637365E+02 0.11247050584E+02 0.10983491361E+02 0.10728610426E+02
 0.10486685207E+02 0.10264226075E+02 0.10069487712E+02 0.99120238898E+01 0.98009961613E+01
 0.97435382137E+01 0.97435380671E+01 0.98009957798E+01 0.99120234249E+01 0.10069487347E+02
 0.10264225951E+02 0.10486685366E+02 0.10728610801E+02 0.10983491800E+02 0.11247050920E+02
 0.10649878548E+02 0.10959911810E+02 0.11287318234E+02 0.11631181909E+02 0.11988013945E+02
 0.12351055055E+02 0.12710123309E+02 0.13052075443E+02 0.13361686310E+02 0.13617427381E+02
 0.13793943291E+02 0.13873423405E+02 0.13848785973E+02 0.13724965000E+02 0.13518634718E+02
 0.13256407263E+02 0.12971717850E+02 0.12700770065E+02 0.12478039218E+02 0.12331910141E+02
 0.12281033839E+02 0.12331909709E+02 0.12478038468E+02 0.12700769196E+02 0.12971717090E+02
 0.13256406805E+02 0.13518634663E+02 0.13724965332E+02 0.13848786559E+02 0.13873424041E+02
 0.13793943766E+02 0.13617427547E+02 0.13361686128E+02 0.13052074995E+02 0.12710122762E+02
 0.12351054594E+02 0.11988013704E+02 0.11631181919E+02 0.11287318414E+02 0.10959912007E+02
 0.10649878600E+02 0.10356650541E+02 0.10079429965E+02 0.98183371936E+01 0.95752028254E+01
 0.93538372846E+01 0.91597456212E+01 0.89993947880E+01 0.88792369327E+01 0.88047125804E+01
 0.87794446267E+01 0.88047125019E+01 0.88792368511E+01 0.89993948158E+01 0.91597458487E+01
 0.93538377295E+01 0.95752034138E+01 0.98183377842E+01 0.10079430406E+02 0.10356650735E+02
 0.98642484556E+01 0.10209502367E+02 0.10578140818E+02 0.10967484826E+02 0.11371854180E+02
 0.11782188782E+02 0.12186240380E+02 0.12569364214E+02 0.12914187818E+02 0.13195568232E+02
 0.13391048964E+02 0.13487378186E+02 0.13482381419E+02 0.13385372163E+02 0.13216080643E+02
 0.13002253939E+02 0.12776226522E+02 0.12570877418E+02 0.12415470500E+02 0.12331909956E+02
 0.12331909709E+02 0.12415469817E+02 0.12570876459E+02 0.12776225514E+02 0.13002253115E+02
 0.13216080188E+02 0.13385372162E+02 0.13482381836E+02 0.13487378874E+02 0.13391049713E+02
 0.13195568828E+02 0.12914188113E+02 0.12569364169E+02 0.12186240068E+02 0.11782188355E+02
 0.11371853812E+02 0.10967484642E+02 0.10578140850E+02 0.10209502550E+02 0.98642486566E+01
 0.95428873050E+01 0.92448433475E+01 0.89695623665E+01 0.87173934132E+01 0.84900737519E+01
 0.82907475961E+01 0.81235741484E+01 0.79930753444E+01 0.79034093767E+01 0.78577299633E+01
 0.78577300202E+01 0.79034095590E+01 0.79930756758E+01 0.81235746381E+01 0.82907482120E+01
 0.84900744110E+01 0.87173939986E+01 0.89695627666E+01 0.92448435009E+01 0.95428872314E+01
 0.91684402952E+01 0.95490003983E+01 0.99568938165E+01 0.10387882226E+02 0.10834545730E+02
 0.11286188332E+02 0.11729316951E+02 0.12148617027E+02 0.12523857989E+02 0.12829977265E+02
 0.13048346293E+02 0.13169985481E+02 0.13196629293E+02 0.13140380717E+02 0.13022046885E+02
 0.12868395866E+02 0.12708683674E+02 0.12570877328E+02 0.12478038955E+02 0.12445331137E+02
 0.12478038468E+02 0.12570876459E+02 0.12708682612E+02 0.12868394837E+02 0.13022046101E+02
 0.13140380328E+02 0.13196629351E+02 0.13169985931E+02 0.13048346992E+02 0.12829978025E+02
 0.12523858631E+02 0.12148617430E+02 0.11729317080E+02 0.11286188241E+02 0.10834545534E+02
 0.10387882055E+02 0.99568937698E+01 0.95490005118E+01 0.91684405326E+01 0.88168563929E+01
 0.84942077376E+01 0.81997940476E+01 0.79331621094E+01 0.76947166803E+01 0.74859421350E+01
 0.73092525859E+01 0.71675810191E+01 0.70638623249E+01 0.70005510375E+01 0.69792605078E+01
 0.70005512695E+01 0.70638627562E+01 0.71675815861E+01 0.73092531997E+01 0.74859426946E+01
 0.76947170921E+01 0.79331623117E+01 0.81997940295E+01 0.84942075465E+01 0.88168561227E+01
 0.85638367094E+01 0.89780286198E+01 0.94221729954E+01 0.98908170826E+01 0.10375325901E+02
 0.10864025855E+02 0.11342900503E+02 0.11796188786E+02 0.12201590056E+02 0.12536411577E+02
 0.12785635340E+02 0.12943680353E+02 0.13014760059E+02 0.13011956590E+02 0.12955192546E+02
 0.12868395855E+02 0.12776226437E+02 0.12700769839E+02 0.12658603640E+02 0.12658603410E+02
 0.12700769196E+02 0.12776225514E+02 0.12868394837E+02 0.12955191629E+02 0.13011955933E+02
 0.13014759758E+02 0.12943680422E+02 0.12785635720E+02 0.12536412158E+02 0.12201590706E+02
 0.11796189383E+02 0.11342900962E+02 0.10864026140E+02 0.10375326029E+02 0.98908171115E+01
 0.94221730047E+01 0.89780286861E+01 0.85638368826E+01 0.81822340150E+01 0.78337824942E+01
 0.75178949947E+01 0.72337274107E+01 0.69808570074E+01 0.67596361241E+01 0.65712100037E+01
 0.64172781464E+01 0.62997305534E+01 0.62202880403E+01 0.61802295795E+01 0.61802297024E+01
 0.62202883749E+01 0.62997310080E+01 0.64172785988E+01 0.65712103379E+01 0.67596362623E+01
 0.69808569292E+01 0.72337271542E+01 0.75178946394E+01 0.78337821339E+01 0.81822337279E+01
 0.80479753531E+01 0.84936741700E+01 0.89713280679E+01 0.94746610886E+01 0.99943240365E+01
 0.10518219985E+02 0.11032338253E+02 0.11520380227E+02 0.11959645621E+02 0.12330286374E+02
 0.12620153277E+02 0.12825806925E+02 0.12952316409E+02 0.13011956632E+02 0.13022046922E+02
 0.13002253927E+02 0.12971717744E+02 0.12946357766E+02 0.12936681735E+02 0.12946357401E+02
 0.12971717090E+02 0.13002253115E+02 0.13022046101E+02 0.13011955933E+02 0.12952315919E+02
 0.12825806681E+02 0.12620153269E+02 0.12330286565E+02 0.11959645958E+02 0.11520380653E+02
 0.11032338709E+02 0.10518220413E+02 0.99943243886E+01 0.94746613352E+01 0.89713282107E+01
 0.84936742473E+01 0.80479754320E+01 0.76376149549E+01 0.72636696481E+01 0.69257318799E+01
 0.66227666740E+01 0.63538210650E+01 0.61184632124E+01 0.59169166468E+01 0.57499431142E+01
 0.56185859464E+01 0.55238956300E+01 0.54667227483E+01 0.54476045684E+01 0.54667229053E+01
 0.55238958721E+01 0.56185861589E+01 0.57499431861E+01 0.59169165140E+01 0.61184628812E+01
 0.63538206061E+01 0.66227661919E+01 0.69257314715E+01 0.72636693681E+01 0.76376148008E+01
 0.76168990760E+01 0.80925609924E+01 0.86021379842E+01 0.91388861256E+01 0.96931401267E+01
 0.10252759573E+02 0.10804018768E+02 0.11330112552E+02 0.11809224035E+02 0.12223842532E+02
 0.12563610940E+02 0.12825807018E+02 0.13014760191E+02 0.13140380843E+02 0.13216080735E+02
 0.13256407301E+02 0.13274711762E+02 0.13281134907E+02 0.13281134781E+02 0.13274711413E+02
 0.13256406805E+02 0.13216080188E+02 0.13140380328E+02 0.13014759758E+02 0.12825806681E+02
 0.12563610690E+02 0.12223842362E+02 0.11809223951E+02 0.11330112571E+02 0.10804018904E+02
 0.10252759817E+02 0.96931404338E+01 0.91388864254E+01 0.86021382060E+01 0.80925610976E+01
 0.76168990805E+01 0.71790117180E+01 0.67803278629E+01 0.64205712001E+01 0.60985725995E+01
 0.58129896742E+01 0.55628021830E+01 0.53475297840E+01 0.51672029881E+01 0.50221814154E+01
 0.49129345040E+01 0.48398747473E+01 0.48032790150E+01 0.48032790433E+01 0.48398748015E+01
 0.49129345069E+01 0.50221812840E+01 0.51672026777E+01 0.53475293157E+01 0.55628016407E+01
 0.58129891716E+01 0.60985722335E+01 0.64205710118E+01 0.67803278231E+01 0.71790117443E+01
 0.72669124751E+01 0.77721892759E+01 0.83136588431E+01 0.88843670765E+01 0.94745772524E+01
 0.10072278166E+02 0.10664035620E+02 0.11232856833E+02 0.11758148576E+02 0.12223842668E+02
 0.12620153506E+02 0.12943680614E+02 0.13196629537E+02 0.13385372367E+02 0.13518634880E+02
 0.13605604426E+02 0.13654213470E+02 0.13669791847E+02 0.13654213358E+02 0.13605604236E+02
 0.13518634663E+02 0.13385372162E+02 0.13196629351E+02 0.12943680422E+02 0.12620153269E+02
 0.12223842362E+02 0.11758148217E+02 0.11232856479E+02 0.10664035346E+02 0.10072278035E+02
 0.94745772786E+01 0.88843672138E+01 0.83136590015E+01 0.77721893605E+01 0.72669124302E+01
 0.68019378888E+01 0.63788804354E+01 0.59975020048E+01 0.56564790595E+01 0.53541218094E+01
 0.50889089174E+01 0.48597691924E+01 0.46661211234E+01 0.45077469985E+01 0.43846091422E+01
 0.42967028910E+01 0.42439940663E+01 0.42264323965E+01 0.42439940314E+01 0.42967027870E+01
 0.43846089246E+01 0.45077466467E+01 0.46661206670E+01 0.48597687120E+01 0.50889085188E+01
 0.53541215811E+01 0.56564790336E+01 0.59975021419E+01 0.63788806403E+01 0.68019380519E+01
 0.69955260859E+01 0.75314360581E+01 0.81062568755E+01 0.87129511762E+01 0.93417853630E+01
 0.99808491810E+01 0.10616830134E+02 0.11232856948E+02 0.11809224294E+02 0.12330286739E+02