   2   2   0   0
  0.2001288E+02  0.3839590E-09  0.3839590E-09  0.3839590E-09  0.5000000E-15
  1.000000000000000E-004
  CAR 
 Silicon                                 
     15.87036942     -7.62722139  301      5.32973375      1.00000000
     -7.627  0.0000E+00  0.0000E+00
     -7.549  0.0000E+00  0.0000E+00
     -7.471  0.0000E+00  0.0000E+00
     -7.392 -0.6499E-33 -0.5091E-34
     -7.314 -0.1484E-27 -0.1162E-28
     -7.236 -0.9822E-23 -0.7693E-24
     -7.157 -0.1881E-18 -0.1473E-19
     -7.079 -0.1000E-14 -0.7834E-16
     -7.001 -0.1558E-11 -0.1221E-12
     -6.922 -0.6822E-09 -0.5355E-10
     -6.844 -0.8172E-07 -0.6454E-08
     -6.766 -0.2540E-05 -0.2054E-06
     -6.687 -0.1877E-04 -0.1676E-05
     -6.609 -0.2865E-04 -0.3919E-05
     -6.531  0.2961E-03  0.1928E-04
     -6.452  0.2133E-02  0.1864E-03
     -6.374  0.2777E-02  0.4038E-03
     -6.296  0.1937E-02  0.5556E-03
     -6.217  0.4343E-02  0.8957E-03
     -6.139  0.7480E-02  0.1482E-02
     -6.061  0.3853E-02  0.1783E-02
     -5.982  0.1060E-02  0.1866E-02
     -5.904  0.6459E-02  0.2372E-02
     -5.826  0.1028E-01  0.3177E-02
     -5.747  0.5936E-02  0.3642E-02
     -5.669  0.6898E-02  0.4182E-02
     -5.591  0.8143E-02  0.4820E-02
     -5.512  0.3565E-02  0.5099E-02
     -5.434  0.2995E-02  0.5334E-02
     -5.356  0.1370E-01  0.6407E-02
     -5.277  0.1525E-01  0.7602E-02
     -5.199  0.5512E-02  0.8034E-02
     -5.121  0.9657E-02  0.8790E-02
     -5.042  0.1125E-01  0.9672E-02
     -4.964  0.5269E-02  0.1008E-01
     -4.886  0.3339E-02  0.1035E-01
     -4.808  0.1298E-01  0.1136E-01
     -4.729  0.1883E-01  0.1284E-01
     -4.651  0.1723E-01  0.1419E-01
     -4.573  0.1291E-01  0.1520E-01
     -4.494  0.1115E-01  0.1607E-01
     -4.416  0.1007E-01  0.1686E-01
     -4.338  0.8806E-02  0.1755E-01
     -4.259  0.7893E-02  0.1817E-01
     -4.181  0.2616E-01  0.2022E-01
     -4.103  0.3502E-01  0.2296E-01
     -4.024  0.1308E-01  0.2398E-01
     -3.946  0.1018E-01  0.2478E-01
     -3.868  0.2079E-01  0.2641E-01
     -3.789  0.6874E-02  0.2695E-01
     -3.711  0.5384E-02  0.2737E-01
     -3.633  0.1774E-01  0.2876E-01
     -3.554  0.2794E-01  0.3095E-01
     -3.476  0.1811E-01  0.3237E-01
     -3.398  0.3895E-02  0.3267E-01
     -3.319  0.7482E-02  0.3326E-01
     -3.241  0.8472E-02  0.3392E-01
     -3.163  0.5755E-02  0.3437E-01
     -3.084  0.2055E-01  0.3598E-01
     -3.006  0.1708E-01  0.3732E-01
     -2.928  0.5840E-02  0.3778E-01
     -2.849  0.4443E-02  0.3812E-01
     -2.771  0.1947E-02  0.3828E-01
     -2.693  0.4958E-02  0.3866E-01
     -2.614  0.6573E-02  0.3918E-01
     -2.536  0.7048E-02  0.3973E-01
     -2.458  0.4316E-02  0.4007E-01
     -2.379  0.2671E-02  0.4028E-01
     -2.301  0.1263E-02  0.4038E-01
     -2.223  0.4135E-02  0.4070E-01
     -2.144  0.4407E-02  0.4105E-01
     -2.066  0.7663E-03  0.4111E-01
     -1.988  0.3837E-02  0.4141E-01
     -1.909  0.3939E-02  0.4172E-01
     -1.831  0.8193E-02  0.4236E-01
     -1.753  0.2182E-01  0.4407E-01
     -1.674  0.1854E-01  0.4552E-01
     -1.596  0.6144E-02  0.4600E-01
     -1.518  0.1002E-01  0.4679E-01
     -1.440  0.3071E-01  0.4919E-01
     -1.361  0.3364E-01  0.5183E-01
     -1.283  0.2416E-01  0.5372E-01
     -1.205  0.1645E-01  0.5501E-01
     -1.126  0.2000E-01  0.5657E-01
     -1.048  0.2414E-01  0.5846E-01
     -0.970  0.9598E-02  0.5922E-01
     -0.891 -0.1051E-02  0.5913E-01
     -0.813  0.1156E-01  0.6004E-01
     -0.735  0.2592E-01  0.6207E-01
     -0.656  0.1254E-01  0.6305E-01
     -0.578  0.6619E-02  0.6357E-01
     -0.500  0.3751E-02  0.6386E-01
     -0.421  0.8817E-02  0.6455E-01
     -0.343  0.1722E-01  0.6590E-01
     -0.265  0.6314E-02  0.6640E-01
     -0.186  0.8434E-03  0.6646E-01
     -0.108  0.8036E-02  0.6709E-01
     -0.030  0.1189E-01  0.6802E-01
      0.049  0.1135E-01  0.6891E-01
      0.127  0.6002E-02  0.6938E-01
      0.205  0.4215E-02  0.6971E-01
      0.284  0.3713E-02  0.7000E-01
      0.362  0.2939E-02  0.7023E-01
      0.440  0.1107E-01  0.7110E-01
      0.519  0.1193E-01  0.7204E-01
      0.597  0.2930E-02  0.7226E-01
      0.675 -0.4930E-03  0.7223E-01
      0.754 -0.4334E-03  0.7219E-01
      0.832 -0.8351E-03  0.7213E-01
      0.910  0.7315E-02  0.7270E-01
      0.989  0.2105E-01  0.7435E-01
      1.067  0.1445E-01  0.7548E-01
      1.145  0.1471E-01  0.7663E-01
      1.224  0.2410E-01  0.7852E-01
      1.302  0.2089E-01  0.8016E-01
      1.380  0.9736E-02  0.8092E-01
      1.459  0.1714E-01  0.8226E-01
      1.537  0.3497E-01  0.8500E-01
      1.615  0.3593E-01  0.8781E-01
      1.693  0.1906E-01  0.8931E-01
      1.772  0.1064E-01  0.9014E-01
      1.850  0.1912E-01  0.9164E-01
      1.928  0.1886E-01  0.9312E-01
      2.007  0.1909E-01  0.9461E-01
      2.085  0.2083E-01  0.9624E-01
      2.163  0.2493E-01  0.9820E-01
      2.242  0.3832E-01  0.1012E+00
      2.320  0.2855E-01  0.1034E+00
      2.398  0.1367E-01  0.1045E+00
      2.477  0.1606E-01  0.1058E+00
      2.555  0.3301E-01  0.1083E+00
      2.633  0.4447E-01  0.1118E+00
      2.712  0.4603E-01  0.1154E+00
      2.790  0.2433E-01  0.1173E+00
      2.868  0.8023E-02  0.1180E+00
      2.947  0.2503E-01  0.1199E+00
      3.025  0.3986E-01  0.1231E+00
      3.103  0.3837E-01  0.1261E+00
      3.182  0.2354E-01  0.1279E+00
      3.260  0.8198E-02  0.1285E+00
      3.338  0.1990E-01  0.1301E+00
      3.417  0.3969E-01  0.1332E+00
      3.495  0.3930E-01  0.1363E+00
      3.573  0.3106E-01  0.1387E+00
      3.652  0.1911E-01  0.1402E+00
      3.730  0.1381E-01  0.1413E+00
      3.808  0.3320E-01  0.1439E+00
      3.887  0.3066E-01  0.1463E+00
      3.965  0.1330E-01  0.1473E+00
      4.043  0.7575E-02  0.1479E+00
      4.122  0.2047E-01  0.1495E+00
      4.200  0.3185E-01  0.1520E+00
      4.278  0.1646E-01  0.1533E+00
      4.357  0.6145E-02  0.1538E+00
      4.435  0.1429E-01  0.1549E+00
      4.513  0.1822E-01  0.1564E+00
      4.592  0.1147E-01  0.1572E+00
      4.670  0.3479E-02  0.1575E+00
      4.748  0.3759E-02  0.1578E+00
      4.827  0.9345E-02  0.1585E+00
      4.905  0.6230E-02  0.1590E+00
      4.983  0.4018E-03  0.1591E+00
      5.061  0.2119E-02  0.1592E+00
      5.140  0.6372E-02  0.1597E+00
      5.218  0.2850E-02  0.1600E+00
      5.296  0.4588E-03  0.1600E+00
      5.375  0.1586E-03  0.1600E+00
      5.453 -0.3493E-04  0.1600E+00
      5.531 -0.9921E-05  0.1600E+00
      5.610 -0.9610E-06  0.1600E+00
      5.688 -0.1810E-04  0.1600E+00
      5.766 -0.1107E-03  0.1600E+00
      5.845  0.4113E-03  0.1600E+00
      5.923  0.2238E-02  0.1602E+00
      6.001  0.1884E-02  0.1603E+00
      6.080  0.3446E-02  0.1606E+00
      6.158  0.7252E-02  0.1612E+00
      6.236  0.5618E-02  0.1616E+00
      6.315  0.6896E-02  0.1622E+00
      6.393  0.7795E-02  0.1628E+00
      6.471  0.4683E-02  0.1631E+00
      6.550  0.3226E-02  0.1634E+00
      6.628  0.1483E-01  0.1646E+00
      6.706  0.1914E-01  0.1661E+00
      6.785  0.1070E-01  0.1669E+00
      6.863  0.1026E-01  0.1677E+00
      6.941  0.2358E-01  0.1695E+00
      7.020  0.2755E-01  0.1717E+00
      7.098  0.2230E-01  0.1734E+00
      7.176  0.1477E-01  0.1746E+00
      7.255  0.2187E-01  0.1763E+00
      7.333  0.2558E-01  0.1783E+00
      7.411  0.2368E-01  0.1802E+00
      7.490  0.3015E-01  0.1825E+00
      7.568  0.4234E-01  0.1859E+00
      7.646  0.3183E-01  0.1883E+00
      7.725  0.1571E-01  0.1896E+00
      7.803  0.1694E-01  0.1909E+00
      7.881  0.3472E-01  0.1936E+00
      7.960  0.3872E-01  0.1967E+00
      8.038  0.1368E-01  0.1977E+00
      8.116  0.2522E-01  0.1997E+00
      8.194  0.2439E-01  0.2016E+00
      8.273  0.1390E-01  0.2027E+00
      8.351  0.2030E-01  0.2043E+00
      8.429  0.2606E-01  0.2063E+00
      8.508  0.4596E-01  0.2099E+00
      8.586  0.6154E-01  0.2148E+00
      8.664  0.4080E-01  0.2179E+00
      8.743  0.3109E-01  0.2204E+00
      8.821  0.3884E-01  0.2234E+00
      8.899  0.2797E-01  0.2256E+00
      8.978  0.3740E-01  0.2285E+00
      9.056  0.4671E-01  0.2322E+00
      9.134  0.2639E-01  0.2343E+00
      9.213  0.1263E-01  0.2353E+00
      9.291  0.1954E-01  0.2368E+00
      9.369  0.1621E-01  0.2381E+00
      9.448  0.1676E-01  0.2394E+00
      9.526  0.3405E-01  0.2420E+00
      9.604  0.3027E-01  0.2444E+00
      9.683  0.1415E-01  0.2455E+00
      9.761  0.6235E-02  0.2460E+00
      9.839  0.1829E-01  0.2474E+00
      9.918  0.5710E-01  0.2519E+00
      9.996  0.5688E-01  0.2564E+00
     10.074  0.3383E-01  0.2590E+00
     10.153  0.2737E-01  0.2612E+00
     10.231  0.2230E-01  0.2629E+00
     10.309  0.2924E-01  0.2652E+00
     10.388  0.2628E-01  0.2673E+00
     10.466  0.1377E-01  0.2683E+00
     10.544  0.1651E-01  0.2696E+00
     10.623  0.1767E-01  0.2710E+00
     10.701  0.7877E-02  0.2716E+00
     10.779  0.1564E-01  0.2729E+00
     10.858  0.1941E-01  0.2744E+00
     10.936  0.2612E-01  0.2764E+00
     11.014  0.3839E-01  0.2794E+00
     11.093  0.2006E-01  0.2810E+00
     11.171  0.5738E-02  0.2814E+00
     11.249  0.1696E-01  0.2828E+00
     11.328  0.2088E-01  0.2844E+00
     11.406  0.2835E-01  0.2866E+00
     11.484  0.2883E-01  0.2889E+00
     11.562  0.3208E-01  0.2914E+00
     11.641  0.3599E-01  0.2942E+00
     11.719  0.1557E-01  0.2954E+00
     11.797  0.4043E-02  0.2958E+00
     11.876  0.1230E-01  0.2967E+00
     11.954  0.2302E-01  0.2985E+00
     12.032  0.1525E-01  0.2997E+00
     12.111  0.1130E-01  0.3006E+00
     12.189  0.1435E-01  0.3017E+00
     12.267  0.2845E-02  0.3019E+00
     12.346  0.5854E-02  0.3024E+00
     12.424  0.2105E-01  0.3041E+00
     12.502  0.1984E-01  0.3056E+00
     12.581  0.1410E-01  0.3067E+00
     12.659  0.9606E-02  0.3075E+00
     12.737  0.1467E-02  0.3076E+00
     12.816  0.3916E-02  0.3079E+00
     12.894  0.1880E-01  0.3094E+00
     12.972  0.2545E-01  0.3114E+00
     13.051  0.2019E-01  0.3129E+00
     13.129  0.1222E-01  0.3139E+00
     13.207  0.7128E-02  0.3145E+00
     13.286  0.1903E-01  0.3159E+00
     13.364  0.2542E-01  0.3179E+00
     13.442  0.4791E-02  0.3183E+00
     13.521 -0.1242E-02  0.3182E+00
     13.599 -0.1939E-03  0.3182E+00
     13.677 -0.5508E-05  0.3182E+00
     13.756 -0.4008E-07  0.3182E+00
     13.834 -0.8050E-10  0.3182E+00
     13.912 -0.4756E-13  0.3182E+00
     13.991 -0.3951E-11  0.3182E+00
     14.069 -0.2615E-08  0.3182E+00
     14.147 -0.4771E-06  0.3182E+00
     14.226 -0.2257E-04  0.3182E+00
     14.304 -0.2188E-03  0.3182E+00
     14.382  0.4034E-03  0.3182E+00
     14.461  0.4470E-02  0.3186E+00
     14.539  0.5409E-02  0.3190E+00
     14.617  0.4361E-02  0.3193E+00
     14.695  0.3420E-02  0.3196E+00
     14.774  0.2035E-02  0.3198E+00
     14.852  0.2595E-02  0.3200E+00
     14.930  0.7319E-03  0.3200E+00
     15.009 -0.1325E-03  0.3200E+00
     15.087 -0.2870E-04  0.3200E+00
     15.165 -0.9716E-06  0.3200E+00
     15.244 -0.8173E-08  0.3200E+00
     15.322 -0.1869E-10  0.3200E+00
     15.400 -0.1200E-13  0.3200E+00
     15.479 -0.2045E-17  0.3200E+00
     15.557  0.0000E+00  0.3200E+00
     15.635  0.0000E+00  0.3200E+00
     15.714  0.0000E+00  0.3200E+00
     15.792  0.0000E+00  0.3200E+00
     15.870  0.0000E+00  0.3200E+00
