    2    2   50    1
  0.2001288E+02  0.3839590E-09  0.3839590E-09  0.3839590E-09  0.5000000E-15
  1.000000000000000E-004
  CAR 
 Silicon                                 
      8     56      8
 
  0.0000000E+00  0.0000000E+00  0.0000000E+00  0.7513148E-03
      1         -6.559149   1.000000
      2          5.256551   0.970494
      3          5.256552   0.970494
      4          5.256552   0.970494
      5          7.812674  -0.000000
      6          7.812674  -0.000000
      7          7.812674  -0.000000
      8          8.376527   0.000000
 
  0.9090909E-01  0.2146648E-17 -0.6570483E-15  0.6010518E-02
      1         -6.452887   1.000000
      2          4.270237   1.000000
      3          5.092489   1.002009
      4          5.092489   1.002009
      5          7.800301  -0.000000
      6          8.054369  -0.000000
      7          8.054369  -0.000000
      8          9.201975   0.000000
 
  0.1818182E+00 -0.1188429E-17 -0.4816781E-14  0.6010518E-02
      1         -6.138241   1.000000
      2          2.609295   1.000000
      3          4.757267   1.000000
      4          4.757267   1.000000
      5          7.477786  -0.000000
      6          8.521742   0.000000
      7          8.521742   0.000000
      8         10.799839   0.000000
 
  0.2727273E+00 -0.1250324E-16  0.5177789E-14  0.6010518E-02
      1         -5.631869   1.000000
      2          0.972461   1.000000
      3          4.437865   1.000000
      4          4.437866   1.000000
      5          7.130710  -0.000000
      6          8.775332   0.000000
      7          8.775332   0.000000
      8         12.368403   0.000000
 
  0.3636364E+00 -0.3417693E-17  0.4520741E-14  0.6010518E-02
      1         -4.985028   1.000000
      2         -0.460066   1.000000
      3          4.208735   1.000000
      4          4.208736   1.000000
      5          6.871180  -0.000000
      6          8.725770   0.000000
      7          8.725770   0.000000
      8         13.099228   0.000000
 
  0.4545455E+00  0.9102602E-17  0.3144139E-15  0.6010518E-02
      1         -4.389952   1.000000
      2         -1.455210   1.000000
      3          4.091754   1.000000
      4          4.091754   1.000000
      5          6.736039  -0.000000
      6          8.623757   0.000000
      7          8.623757   0.000000
      8         12.984356   0.000000
 
  0.9090909E-01  0.9090909E-01  0.1107631E-16  0.4507889E-02
      1         -6.417256   1.000000
      2          4.435732   1.000000
      3          4.773870   1.000000
      4          4.773870   1.000000
      5          7.498405  -0.000000
      6          8.469720   0.000000
      7          8.469720   0.000000
      8          9.128298   0.000000
 
  0.1818182E+00  0.9090909E-01 -0.4154771E-14  0.1803156E-01
      1         -6.171280   1.000000
      2          3.095383   1.000000
      3          4.383657   1.000000
      4          4.556570   1.000000
      5          7.531290  -0.000000
      6          8.492711   0.000000
      7          9.053823   0.000000
      8         10.118841   0.000000
 
  0.2727273E+00  0.9090909E-01 -0.4820736E-14  0.1803156E-01
      1         -5.726239   1.000000
      2          1.497233   1.000000
      3          4.068718   1.000000
      4          4.187775   1.000000
      5          7.635255  -0.000000
      6          8.501132   0.000000
      7          9.406331   0.000000
      8         10.585976   0.000000
 
  0.3636364E+00  0.9090909E-01  0.5131195E-14  0.1803156E-01
      1         -5.116454   1.000000
      2          0.012663   1.000000
      3          3.810746   1.000000
      4          3.883563   1.000000
      5          7.470050  -0.000000
      6          8.558657   0.000000
      7          9.348281   0.000000
      8         11.351028   0.000000
 
  0.4545455E+00  0.9090909E-01  0.9248675E-15  0.1803156E-01
      1         -4.462061   1.000000
      2         -1.158184   1.000000
      3          3.517048   1.000000
      4          3.842534   1.000000
      5          7.325711  -0.000000
      6          8.527997   0.000000
      7          9.119816   0.000000
      8         12.578074   0.000000
 
 -0.4545455E+00  0.9090909E-01  0.2306059E-15  0.1803156E-01
      1         -4.199993   1.000000
      2         -1.550168   1.000000
      3          3.342854   1.000000
      4          3.941527   1.000000
      5          7.296339  -0.000000
      6          8.586545   0.000000
      7          8.938320   0.000000
      8         13.286337   0.000000
 
 -0.3636364E+00  0.9090909E-01 -0.3844854E-14  0.1803156E-01
      1         -4.670370   1.000000
      2         -0.817696   1.000000
      3          3.308960   1.000000
      4          4.164797   1.000000
      5          7.394645  -0.000000
      6          8.774752   0.000000
      7          8.859225   0.000000
      8         12.958940   0.000000
 
 -0.2727273E+00  0.9090909E-01 -0.4520741E-14  0.1803156E-01
      1         -5.335433   1.000000
      2          0.487474   1.000000
      3          3.430859   1.000000
      4          4.483845   1.000000
      5          7.609518  -0.000000
      6          8.786671   0.000000
      7          8.979958   0.000000
      8         11.896550   0.000000
 
 -0.1818182E+00  0.9090909E-01 -0.5205545E-14  0.1803156E-01
      1         -5.896465   1.000000
      2          2.014328   1.000000
      3          3.726538   1.000000
      4          4.842878   1.000000
      5          7.906134  -0.000000
      6          8.502284   0.000000
      7          8.848224   0.000000
      8         11.000674   0.000000
 
 -0.9090909E-01  0.9090909E-01  0.1281380E-14  0.9015778E-02
      1         -6.276836   1.000000
      2          3.466329   1.000000
      3          4.285552   1.000000
      4          5.114258   1.004698
      5          8.105164   0.000000
      6          8.138719   0.000000
      7          8.266811   0.000000
      8         10.095302   0.000000
 
  0.1818182E+00  0.1818182E+00  0.6378914E-16  0.4507889E-02
      1         -5.994159   1.000000
      2          2.936908   1.000000
      3          3.957338   1.000000
      4          3.957338   1.000000
      5          6.861355  -0.000000
      6          9.327464   0.000000
      7          9.799602   0.000000
      8          9.799602   0.000000
 
  0.2727273E+00  0.1818182E+00 -0.6337509E-15  0.1803156E-01
      1         -5.613960   1.000000
      2          1.796185   1.000000
      3          3.541899   1.000000
      4          3.619115   1.000000
      5          6.912965  -0.000000
      6          8.935242   0.000000
      7         10.082909   0.000000
      8         10.378527   0.000000
 
  0.3636364E+00  0.1818182E+00 -0.1234785E-14  0.1803156E-01
      1         -5.053544   1.000000
      2          0.447509   1.000000
      3          3.015448   1.000000
      4          3.424689   1.000000
      5          7.146458  -0.000000
      6          9.292430   0.000000
      7          9.881668   0.000000
      8         10.464574   0.000000
 
  0.4545455E+00  0.1818182E+00  0.5215468E-14  0.1803156E-01
      1         -4.387581   1.000000
      2         -0.767293   1.000000
      3          2.545085   1.000000
      4          3.392012   1.000000
      5          7.184623  -0.000000
      6          9.649237   0.000000
      7         10.219602   0.000000
      8         10.499183   0.000000
 
 -0.4545455E+00  0.1818182E+00  0.4520200E-14  0.1803156E-01
      1         -3.917516   1.000000
      2         -1.460865   1.000000
      3          2.215120   1.000000
      4          3.520149   1.000000
      5          7.279850  -0.000000
      6          9.525288   0.000000
      7          9.934445   0.000000
      8         12.105288   0.000000
 
 -0.3636364E+00  0.1818182E+00  0.3614734E-15  0.1803156E-01
      1         -4.195237   1.000000
      2         -1.058988   1.000000
      3          2.066407   1.000000
      4          3.793081   1.000000
      5          7.523095  -0.000000
      6          9.519738   0.000000
      7          9.711669   0.000000
      8         12.910020   0.000000
 
 -0.2727273E+00  0.1818182E+00 -0.3144139E-15  0.1803156E-01
      1         -4.852204   1.000000
      2          0.035597   1.000000
      3          2.150956   1.000000
      4          4.173489   1.000000
      5          7.877910  -0.000000
      6          9.465323   0.000000
      7          9.575328   0.000000
      8         11.526881   0.000000
 
 -0.1818182E+00  0.1818182E+00 -0.9803787E-15  0.9015778E-02
      1         -5.456940   1.000000
      2          1.207870   1.000000
      3          2.630476   1.000000
      4          4.580157   1.000000
      5          8.191285   0.000000
      6          8.978215   0.000000
      7          9.268219   0.000000
      8         10.857258   0.000000
 
  0.2727273E+00  0.2727273E+00  0.3786064E-16  0.4507889E-02
      1         -5.298301   1.000000
      2          1.331800   1.000000
      3          3.247222   1.000000
      4          3.247222   1.000000
      5          6.280388  -0.000000
      6          8.066891   0.000000
      7         11.342407   0.000000
      8         11.342407   0.000000
 
  0.3636364E+00  0.2727273E+00 -0.6059954E-15  0.1803156E-01
      1         -4.793973   1.000000
      2          0.390913   1.000000
      3          2.719864   1.000000
      4          3.018890   1.000000
      5          6.411942  -0.000000
      6          7.781592  -0.000000
      7         11.619269   0.000000
      8         11.806836   0.000000
 
  0.4545455E+00  0.2727273E+00 -0.4737469E-14  0.1803156E-01
      1         -4.147123   1.000000
      2         -0.620589   1.000000
      3          2.006074   1.000000
      4          2.958009   1.000000
      5          6.612085  -0.000000
      6          8.521184   0.000000
      7         11.455092   0.000000
      8         11.679730   0.000000
 
 -0.4545455E+00  0.2727273E+00  0.5289277E-14  0.1803156E-01
      1         -3.547175   1.000000
      2         -1.405401   1.000000
      3          1.443157   1.000000
      4          3.068251   1.000000
      5          6.744362  -0.000000
      6          9.983426   0.000000
      7         11.285495   0.000000
      8         11.358875   0.000000
 
 -0.3636364E+00  0.2727273E+00  0.9620044E-15  0.1803156E-01
      1         -3.602901   1.000000
      2         -1.326991   1.000000
      3          1.164537   1.000000
      4          3.337841   1.000000
      5          7.027557  -0.000000
      6         11.009510   0.000000
      7         11.027867   0.000000
      8         11.908546   0.000000
 
 -0.2727273E+00  0.2727273E+00  0.2861170E-15  0.9015778E-02
      1         -4.223860   1.000000
      2         -0.581423   1.000000
      3          1.324115   1.000000
      4          3.732974   1.000000
      5          7.460852  -0.000000
      6         10.414422   0.000000
      7         10.757004   0.000000
      8         11.574179   0.000000
 
  0.3636364E+00  0.3636364E+00  0.1148738E-15  0.4507889E-02
      1         -4.345243   1.000000
      2         -0.263356   1.000000
      3          2.748309   1.000000
      4          2.748309   1.000000
      5          5.930867  -0.000000
      6          6.947715  -0.000000
      7         12.981904   0.000000
      8         12.981904   0.000000
 
  0.4545455E+00  0.3636364E+00 -0.4127016E-14  0.1803156E-01
      1         -3.734496   1.000000
      2         -1.065761   1.000000
      3          2.225961   1.000000
      4          2.644589   1.000000
      5          6.138526  -0.000000
      6          6.957953  -0.000000
      7         13.300029   0.000000
      8         13.311910   0.000000
 
 -0.4545455E+00  0.3636364E+00 -0.4845078E-14  0.1803156E-01
      1         -3.074146   1.000000
      2         -1.770861   1.000000
      3          1.465428   1.000000
      4          2.716259   1.000000
      5          6.307888  -0.000000
      6          8.123460   0.000000
      7         13.033983   0.000000
      8         13.165298   0.000000
 
 -0.3636364E+00  0.3636364E+00  0.1637892E-14  0.9015778E-02
      1         -3.014412   1.000000
      2         -1.799798   1.000000
      3          0.990925   1.000000
      4          2.956326   1.000000
      5          6.580416  -0.000000
      6          9.825972   0.000000
      7         12.361849   0.000000
      8         12.888436   0.000000
 
  0.4545455E+00  0.4545455E+00  0.9962962E-16  0.4507889E-02
      1         -3.160346   1.000000
      2         -1.781966   1.000000
      3          2.493250   1.000000
      4          2.493250   1.000000
      5          5.894264  -0.000000
      6          6.221417  -0.000000
      7         14.646918   0.000000
      8         14.646918   0.000000
 
 -0.4545455E+00  0.4545455E+00 -0.6288279E-15  0.9015778E-02
      1         -2.527107   1.000000
      2         -2.415170   1.000000
      3          2.063138   1.000000
      4          2.517910   1.000000
      5          6.075075  -0.000000
      6          6.649044  -0.000000
      7         14.573427   0.000000
      8         14.802297   0.000000
 
  0.2727273E+00  0.1818182E+00  0.9090909E-01  0.1803156E-01
      1         -5.858678   1.000000
      2          2.238642   1.000000
      3          3.460508   1.000000
      4          4.445675   1.000000
      5          7.590536  -0.000000
      6          8.806591   0.000000
      7          9.596385   0.000000
      8         10.016990   0.000000
 
  0.3636364E+00  0.1818182E+00  0.9090909E-01  0.3606311E-01
      1         -5.355119   1.000000
      2          0.939067   1.000000
      3          2.903335   1.000000
      4          4.132676   1.000000
      5          7.893710  -0.000000
      6          8.771490   0.000000
      7          9.925697   0.000000
      8         10.133794   0.000000
 
  0.4545455E+00  0.1818182E+00  0.9090909E-01  0.3606311E-01
      1         -4.709759   1.000000
      2         -0.380358   1.000000
      3          2.645790   1.000000
      4          3.795951   1.000000
      5          7.915963  -0.000000
      6          8.595525   0.000000
      7         10.019849   0.000000
      8         10.964291   0.000000
 
 -0.4545455E+00  0.1818182E+00  0.9090909E-01  0.3606311E-01
      1         -4.109883   1.000000
      2         -1.341456   1.000000
      3          2.545159   1.000000
      4          3.590068   1.000000
      5          7.883314  -0.000000
      6          8.407604   0.000000
      7          9.956434   0.000000
      8         12.409686   0.000000
 
  0.3636364E+00  0.2727273E+00  0.9090909E-01  0.1803156E-01
      1         -5.172778   1.000000
      2          0.957360   1.000000
      3          2.756651   1.000000
      4          3.458803   1.000000
      5          7.037799  -0.000000
      6          8.556626   0.000000
      7         10.191414   0.000000
      8         11.227081   0.000000
 
  0.4545455E+00  0.2727273E+00  0.9090909E-01  0.3606311E-01
      1         -4.566712   1.000000
      2         -0.105287   1.000000
      3          2.188990   1.000000
      4          3.152619   1.000000
      5          7.395670  -0.000000
      6          8.966035   0.000000
      7          9.879360   0.000000
      8         11.614379   0.000000
 
 -0.4545455E+00  0.2727273E+00  0.9090909E-01  0.3606311E-01
      1         -3.908086   1.000000
      2         -1.094155   1.000000
      3          1.807312   1.000000
      4          3.000811   1.000000
      5          7.527729  -0.000000
      6          9.499725   0.000000
      7         10.307917   0.000000
      8         11.570700   0.000000
 
 -0.3636364E+00  0.2727273E+00  0.9090909E-01  0.3606311E-01
      1         -3.648578   1.000000
      2         -1.434654   1.000000
      3          1.581481   1.000000
      4          3.088441   1.000000
      5          7.736176  -0.000000
      6          9.237605   0.000000
      7         11.458031   0.000000
      8         11.975838   0.000000
 
 -0.2727273E+00  0.2727273E+00  0.9090909E-01  0.3606311E-01
      1         -4.142817   1.000000
      2         -0.761073   1.000000
      3          1.574323   1.000000
      4          3.377798   1.000000
      5          8.089021   0.000000
      6          9.051277   0.000000
      7         10.760030   0.000000
      8         11.393115   0.000000
 
 -0.1818182E+00  0.2727273E+00  0.9090909E-01  0.1803156E-01
      1         -4.804776   1.000000
      2          0.203584   1.000000
      3          1.948453   1.000000
      4          3.783793   1.000000
      5          8.513335   0.000000
      6          8.638277   0.000000
      7          9.890403   0.000000
      8         10.939070   0.000000
 
  0.4545455E+00  0.3636364E+00  0.9090909E-01  0.1803156E-01
      1         -4.238430   1.000000
      2         -0.398224   1.000000
      3          2.289070   1.000000
      4          2.674151   1.000000
      5          6.687421  -0.000000
      6          7.539369  -0.000000
      7         11.554653   0.000000
      8         12.948113   0.000000
 
 -0.4545455E+00  0.3636364E+00  0.9090909E-01  0.3606311E-01
      1         -3.571017   1.000000
      2         -1.208138   1.000000
      3          1.659834   1.000000
      4          2.499644   1.000000
      5          7.030824  -0.000000
      6          8.340311   0.000000
      7         11.208525   0.000000
      8         13.305508   0.000000
 
 -0.3636364E+00  0.3636364E+00  0.9090909E-01  0.3606311E-01
      1         -3.113399   1.000000
      2         -1.696310   1.000000
      3          1.149554   1.000000
      4          2.613384   1.000000
      5          7.242599  -0.000000
      6          9.894512   0.000000
      7         10.910390   0.000000
      8         12.494221   0.000000
 
 -0.2727273E+00  0.3636364E+00  0.9090909E-01  0.1803156E-01
      1         -3.492402   1.000000
      2         -1.301801   1.000000
      3          1.047363   1.000000
      4          2.930421   1.000000
      5          7.607230  -0.000000
      6         10.301041   0.000000
      7         11.021794   0.000000
      8         11.907929   0.000000
 
 -0.4545455E+00  0.4545455E+00  0.9090909E-01  0.1803156E-01
      1         -3.089082   1.000000
      2         -1.780444   1.000000
      3          2.101169   1.000000
      4          2.221236   1.000000
      5          6.621965  -0.000000
      6          6.892964  -0.000000
      7         13.070352   0.000000
      8         14.457450   0.000000
 
 -0.3636364E+00  0.4545455E+00  0.9090909E-01  0.1803156E-01
      1         -2.595755   1.000000
      2         -2.219241   1.000000
      3          1.457151   1.000000
      4          2.292132   1.000000
      5          6.901002  -0.000000
      6          8.134415   0.000000
      7         12.623711   0.000000
      8         12.851881   0.000000
 
 -0.4545455E+00  0.3636364E+00  0.1818182E+00  0.1803156E-01
      1         -3.934970   1.000000
      2         -0.784874   1.000000
      3          1.547600   1.000000
      4          2.698375   1.000000
      5          8.323298   0.000000
      6          8.974936   0.000000
      7          9.507617   0.000000
      8         12.848391   0.000000
 
 -0.3636364E+00  0.3636364E+00  0.1818182E+00  0.3606311E-01
      1         -3.313546   1.000000
      2         -1.473649   1.000000
      3          1.271981   1.000000
      4          2.385204   1.000000
      5          8.698117   0.000000
      6          9.042019   0.000000
      7         10.298999   0.000000
      8         12.143652   0.000000
 
 -0.3636364E+00  0.4545455E+00  0.1818182E+00  0.1803156E-01
      1         -2.908677   1.000000
      2         -1.825029   1.000000
      3          1.500515   1.000000
      4          1.876907   1.000000
      5          8.244525   0.000000
      6          8.454164   0.000000
      7         10.805135   0.000000
      8         12.378382   0.000000
 
 -0.2727273E+00  0.4545455E+00  0.1818182E+00  0.1803156E-01
      1         -2.714118   1.000000
      2         -1.986525   1.000000
      3          1.227830   1.000000
      4          1.912467   1.000000
      5          8.591976   0.000000
      6          9.868461   0.000000
      7         10.574062   0.000000
      8         10.584177   0.000000
