       N       E                     dE             d eps       ncg     rms          rms(c)
DAV:   1     0.473551473141E+01    0.47355E+01   -0.40009E+03  1048   0.956E+02
DAV:   2    -0.106453206393E+02   -0.15381E+02   -0.14038E+02  1296   0.753E+01
DAV:   3    -0.110179572485E+02   -0.37264E+00   -0.37314E+00  1128   0.135E+01
DAV:   4    -0.110250170884E+02   -0.70598E-02   -0.70600E-02  1600   0.258E+00
DAV:   5    -0.110250912027E+02   -0.74114E-04   -0.74114E-04  1320   0.180E-01    0.302E+00
DAV:   6    -0.108988842280E+02    0.12621E+00   -0.79764E-02  1312   0.147E+00    0.179E+00
DAV:   7    -0.108397589638E+02    0.59125E-01   -0.14560E-01  1256   0.208E+00    0.150E-01
DAV:   8    -0.108410012170E+02   -0.12423E-02   -0.39994E-03  1056   0.520E-01    0.257E-02
DAV:   9    -0.108411125554E+02   -0.11134E-03   -0.21068E-04  1472   0.130E-01    0.152E-02
DAV:  10    -0.108411334893E+02   -0.20934E-04   -0.31845E-05  1136   0.464E-02    0.150E-03
DAV:  11    -0.108411331966E+02    0.29272E-06   -0.45758E-07  1368   0.595E-03
   1 F= -.10841133E+02 E0= -.10841144E+02  d E =-.108411E+02
       N       E                     dE             d eps       ncg     rms          rms(c)
DAV:   1    -0.108513609117E+02   -0.10227E-01   -0.32192E-01  1528   0.530E+00    0.331E-01
DAV:   2    -0.108465442791E+02    0.48166E-02   -0.38640E-03  1232   0.457E-01    0.189E-01
DAV:   3    -0.108441117619E+02    0.24325E-02   -0.50793E-03  1288   0.461E-01    0.217E-02
DAV:   4    -0.108440999049E+02    0.11857E-04   -0.53215E-05  1200   0.638E-02    0.385E-03
DAV:   5    -0.108440994666E+02    0.43828E-06   -0.15347E-06  1456   0.104E-02
   2 F= -.10844099E+02 E0= -.10844112E+02  d E =-.296627E-02
       N       E                     dE             d eps       ncg     rms          rms(c)
DAV:   1    -0.108476564044E+02   -0.35565E-02   -0.54580E-02  1512   0.224E+00    0.136E-01
DAV:   2    -0.108468614722E+02    0.79493E-03   -0.64027E-04  1248   0.186E-01    0.777E-02
DAV:   3    -0.108464682054E+02    0.39327E-03   -0.84454E-04  1272   0.189E-01    0.897E-03
DAV:   4    -0.108464719650E+02   -0.37596E-05   -0.86643E-06  1128   0.260E-02    0.151E-03
DAV:   5    -0.108464726576E+02   -0.69261E-06   -0.22273E-07  1088   0.427E-03
   3 F= -.10846473E+02 E0= -.10846484E+02  d E =-.533946E-02
