 vasp.6.3.2 27Jun22 (build Dec 02 2024 22:47:12) complex                        
  
 executed on             LinuxIFC date 2024.12.19  21:20:51
 running on    1 total cores
 distrk:  each k-point on    1 cores,    1 groups
 distr:  one band on NCORE=   1 cores,    1 groups


--------------------------------------------------------------------------------------------------------


 INCAR:
   SYSTEM = Silicon
   ENCUT = 520
   PREC = Accurate
   ISMEAR = 1
   SIGMA = 0.1
   IBRION = 2
   ISIF = 3
   NSW = 50
   EDIFF = 1E-6
   EDIFFG = -0.02
   ALGO = Normal
   LREAL = Auto
   KSPACING = 0.2

 POTCAR:    PAW_PBE Si_GW 04May2012               
 POTCAR:    PAW_PBE Si_GW 04May2012               
   VRHFIN =Si: s2p2                                                                                 
   LEXCH  = PE                                                                                      
   EATOM  =   103.0669 eV,    7.5752 Ry                                                             
                                                                                                    
   TITEL  = PAW_PBE Si_GW 04May2012                                                                 
   LULTRA =        F    use ultrasoft PP ?                                                          
   IUNSCR =        1    unscreen: 0-lin 1-nonlin 2-no                                               
   RPACOR =    1.500    partial core radius                                                         
   POMASS =   28.085; ZVAL   =    4.000    mass and valenz                                          
   RCORE  =    1.900    outmost cutoff radius                                                       
   RWIGS  =    2.480; RWIGS  =    1.312    wigner-seitz radius (au A)                               
   ENMAX  =  245.345; ENMIN  =  184.009 eV                                                          
   ICORE  =        3    local potential                                                             
   LCOR   =        T    correct aug charges                                                         
   LPAW   =        T    paw PP                                                                      
   EAUG   =  412.952                                                                                
   DEXC   =    0.000                                                                                
   RMAX   =    1.950    core radius for proj-oper                                                   
   RAUG   =    1.300    factor for augmentation sphere                                              
   RDEP   =    1.993    radius for radial grids                                                     
   RDEPT  =    2.000    core radius for aug-charge                                                  
                                                                                                    
   Atomic configuration                                                                             
    7 entries                                                                                       
     n  l   j            E        occ.                                                              
     1  0  0.50     -1785.8828   2.0000                                                             
     2  0  0.50      -139.4969   2.0000                                                             
     2  1  1.50       -95.5546   6.0000                                                             
     3  0  0.50       -10.8127   2.0000                                                             
     3  1  0.50        -4.0811   2.0000                                                             
     3  2  1.50        -4.0817   0.0000                                                             
     4  3  2.50        -4.0817   0.0000                                                             
   Description                                                                                      
     l       E           TYP  RCUT    TYP  RCUT                                                     
     0    -10.8127223     23  1.900                                                                 
     0     95.2407820     23  1.900                                                                 
     1     -4.0811372     23  1.900                                                                 
     1     54.4233040     23  1.900                                                                 
     2     -8.1634956     23  1.900                                                                 
     2     81.6349560     23  1.900                                                                 
     3     27.2116520     23  1.900                                                                 
  local pseudopotential read in
  partial core-charges read in
  partial kinetic energy density read in
  kinetic energy density of atom read in
  atomic valenz-charges read in
  non local Contribution for L=           0  read in
    real space projection operators read in
  non local Contribution for L=           0  read in
    real space projection operators read in
  non local Contribution for L=           1  read in
    real space projection operators read in
  non local Contribution for L=           1  read in
    real space projection operators read in
  non local Contribution for L=           2  read in
    real space projection operators read in
  non local Contribution for L=           2  read in
    real space projection operators read in
    PAW grid and wavefunctions read in
 
   number of l-projection  operators is LMAX  =           6
   number of lm-projection operators is LMMAX =          18
 
 -----------------------------------------------------------------------------
|                                                                             |
|               ----> ADVICE to this user running VASP <----                  |
|                                                                             |
|     You have a (more or less) 'small supercell' and for smaller cells       |
|     it is recommended to use the reciprocal-space projection scheme!        |
|     The real-space optimization is not efficient for small cells and it     |
|     is also less accurate ...                                               |
|     Therefore, set LREAL=.FALSE. in the INCAR file.                         |
|                                                                             |
 -----------------------------------------------------------------------------

 Optimization of the real space projectors (new method)

 maximal supplied QI-value         = 19.84
 optimisation between [QCUT,QGAM] = [ 11.51, 23.22] = [ 37.09,150.92] Ry 
 Optimized for a Real-space Cutoff    1.21 Angstroem

   l    n(q)    QCUT    max X(q) W(low)/X(q) W(high)/X(q)  e(spline) 
   0      8    11.508    10.962    0.58E-04    0.76E-04    0.35E-07
   0      8    11.508     6.742    0.70E-04    0.11E-03    0.52E-07
   1      8    11.508     7.662    0.12E-03    0.10E-03    0.11E-06
   1      8    11.508     3.141    0.98E-04    0.65E-04    0.79E-07
   2      7    11.508     2.974    0.16E-03    0.28E-03    0.14E-06
   2      7    11.508     1.249    0.13E-03    0.27E-03    0.14E-06
  PAW_PBE Si_GW 04May2012               :
 energy of atom  1       EATOM= -103.0669
 kinetic energy error for atom=    0.0005 (will be added to EATOM!!)
 
 
 POSCAR: system Si
  positions in cartesian coordinates
  No initial velocities read in
 exchange correlation table for  LEXCH =        8
   RHO(1)=    0.500       N(1)  =     2000
   RHO(2)=  100.500       N(2)  =     4000
 


--------------------------------------------------------------------------------------------------------


 ion  position               nearest neighbor table
   1  0.000  0.000  0.000-   2 2.35   2 2.35   2 2.35   2 2.35
   2  0.250  0.250  0.250-   1 2.35   1 2.35   1 2.35   1 2.35
 
  LATTYP: Found a face centered cubic cell.
 ALAT       =     5.4300000000
  
  Lattice vectors:
  
 A1 = (   2.7150000000,   2.7150000000,   0.0000000000)
 A2 = (   0.0000000000,   2.7150000000,   2.7150000000)
 A3 = (   2.7150000000,   0.0000000000,   2.7150000000)


Analysis of symmetry for initial positions (statically):
=====================================================================
 Subroutine PRICEL returns:
 Original cell was already a primitive cell.
 

 Routine SETGRP: Setting up the symmetry group for a 
 face centered cubic supercell.


 Subroutine GETGRP returns: Found 48 space group operations
 (whereof 24 operations were pure point group operations)
 out of a pool of 48 trial point group operations.


The static configuration has the point symmetry T_d .
 The point group associated with its full space group is O_h .


Analysis of symmetry for dynamics (positions and initial velocities):
=====================================================================
 Subroutine PRICEL returns:
 Original cell was already a primitive cell.
 

 Routine SETGRP: Setting up the symmetry group for a 
 face centered cubic supercell.


 Subroutine GETGRP returns: Found 48 space group operations
 (whereof 24 operations were pure point group operations)
 out of a pool of 48 trial point group operations.


The dynamic configuration has the point symmetry T_d .
 The point group associated with its full space group is O_h .


 Subroutine INISYM returns: Found 48 space group operations
 (whereof 24 operations are pure point group operations),
 and found     1 'primitive' translations


----------------------------------------------------------------------------------------

                                     Primitive cell                                     

  volume of cell :      40.0258

  direct lattice vectors                    reciprocal lattice vectors
     2.715000000  2.715000000  0.000000000     0.184162063  0.184162063 -0.184162063
     0.000000000  2.715000000  2.715000000    -0.184162063  0.184162063  0.184162063
     2.715000000  0.000000000  2.715000000     0.184162063 -0.184162063  0.184162063

  length of vectors
     3.839589822  3.839589822  3.839589822     0.318978049  0.318978049  0.318978049

  position of ions in fractional coordinates (direct lattice)
     0.000000000  0.000000000  0.000000000
     0.250000000  0.250000000  0.250000000

  ion indices of the primitive-cell ions
   primitive index   ion index
                 1           1
                 2           2

----------------------------------------------------------------------------------------

 
 -----------------------------------------------------------------------------
|                                                                             |
|           W    W    AA    RRRRR   N    N  II  N    N   GGGG   !!!           |
|           W    W   A  A   R    R  NN   N  II  NN   N  G    G  !!!           |
|           W    W  A    A  R    R  N N  N  II  N N  N  G       !!!           |
|           W WW W  AAAAAA  RRRRR   N  N N  II  N  N N  G  GGG   !            |
|           WW  WW  A    A  R   R   N   NN  II  N   NN  G    G                |
|           W    W  A    A  R    R  N    N  II  N    N   GGGG   !!!           |
|                                                                             |
|     The requested file  could not be found or opened for reading            |
|     k-point information. Automatic k-point generation is used as a          |
|     fallback, which may lead to unwanted results.                           |
|                                                                             |
 -----------------------------------------------------------------------------

 

Automatic generation of k-mesh.
 Grid dimensions derived from KSPACING:
 generate k-points for:   11   11   11

 Generating k-lattice:

  Cartesian coordinates                     Fractional coordinates (reciprocal lattice)
     0.016742006  0.016742006 -0.016742006     0.090909091 -0.000000000 -0.000000000
    -0.016742006  0.016742006  0.016742006    -0.000000000  0.090909091  0.000000000
     0.016742006 -0.016742006  0.016742006     0.000000000  0.000000000  0.090909091

  Length of vectors
     0.028998004  0.028998004  0.028998004

  Shift w.r.t. Gamma in fractional coordinates (k-lattice)
     0.000000000  0.000000000  0.000000000

 
 Subroutine IBZKPT returns following result:
 ===========================================
 
 Found     56 irreducible k-points:
 
 Following reciprocal coordinates:
            Coordinates               Weight
  0.000000  0.000000  0.000000      1.000000
  0.090909  0.000000 -0.000000      8.000000
  0.181818 -0.000000 -0.000000      8.000000
  0.272727 -0.000000  0.000000      8.000000
  0.363636 -0.000000  0.000000      8.000000
  0.454545  0.000000  0.000000      8.000000
  0.090909  0.090909  0.000000      6.000000
  0.181818  0.090909 -0.000000     24.000000
  0.272727  0.090909 -0.000000     24.000000
  0.363636  0.090909  0.000000     24.000000
  0.454545  0.090909  0.000000     24.000000
 -0.454545  0.090909  0.000000     24.000000
 -0.363636  0.090909 -0.000000     24.000000
 -0.272727  0.090909 -0.000000     24.000000
 -0.181818  0.090909 -0.000000     24.000000
 -0.090909  0.090909  0.000000     12.000000
  0.181818  0.181818  0.000000      6.000000
  0.272727  0.181818 -0.000000     24.000000
  0.363636  0.181818 -0.000000     24.000000
  0.454545  0.181818  0.000000     24.000000
 -0.454545  0.181818  0.000000     24.000000
 -0.363636  0.181818  0.000000     24.000000
 -0.272727  0.181818 -0.000000     24.000000
 -0.181818  0.181818 -0.000000     12.000000
  0.272727  0.272727  0.000000      6.000000
  0.363636  0.272727 -0.000000     24.000000
  0.454545  0.272727 -0.000000     24.000000
 -0.454545  0.272727  0.000000     24.000000
 -0.363636  0.272727  0.000000     24.000000
 -0.272727  0.272727  0.000000     12.000000
  0.363636  0.363636  0.000000      6.000000
  0.454545  0.363636 -0.000000     24.000000
 -0.454545  0.363636 -0.000000     24.000000
 -0.363636  0.363636  0.000000     12.000000
  0.454545  0.454545  0.000000      6.000000
 -0.454545  0.454545 -0.000000     12.000000
  0.272727  0.181818  0.090909     24.000000
  0.363636  0.181818  0.090909     48.000000
  0.454545  0.181818  0.090909     48.000000
 -0.454545  0.181818  0.090909     48.000000
  0.363636  0.272727  0.090909     24.000000
  0.454545  0.272727  0.090909     48.000000
 -0.454545  0.272727  0.090909     48.000000
 -0.363636  0.272727  0.090909     48.000000
 -0.272727  0.272727  0.090909     48.000000
 -0.181818  0.272727  0.090909     24.000000
  0.454545  0.363636  0.090909     24.000000
 -0.454545  0.363636  0.090909     48.000000
 -0.363636  0.363636  0.090909     48.000000
 -0.272727  0.363636  0.090909     24.000000
 -0.454545  0.454545  0.090909     24.000000
 -0.363636  0.454545  0.090909     24.000000
 -0.454545  0.363636  0.181818     24.000000
 -0.363636  0.363636  0.181818     48.000000
 -0.363636  0.454545  0.181818     24.000000
 -0.272727  0.454545  0.181818     24.000000
 
 Following cartesian coordinates:
            Coordinates               Weight
  0.000000  0.000000  0.000000      1.000000
  0.090909  0.090909 -0.090909      8.000000
  0.181818  0.181818 -0.181818      8.000000
  0.272727  0.272727 -0.272727      8.000000
  0.363636  0.363636 -0.363636      8.000000
  0.454545  0.454545 -0.454545      8.000000
  0.000000  0.181818  0.000000      6.000000
  0.090909  0.272727 -0.090909     24.000000
  0.181818  0.363636 -0.181818     24.000000
  0.272727  0.454545 -0.272727     24.000000
  0.363636  0.545455 -0.363636     24.000000
 -0.545455 -0.363636  0.545455     24.000000
 -0.454545 -0.272727  0.454545     24.000000
 -0.363636 -0.181818  0.363636     24.000000
 -0.272727 -0.090909  0.272727     24.000000
 -0.181818 -0.000000  0.181818     12.000000
  0.000000  0.363636  0.000000      6.000000
  0.090909  0.454545 -0.090909     24.000000
  0.181818  0.545455 -0.181818     24.000000
  0.272727  0.636364 -0.272727     24.000000
 -0.636364 -0.272727  0.636364     24.000000
 -0.545455 -0.181818  0.545455     24.000000
 -0.454545 -0.090909  0.454545     24.000000
 -0.363636  0.000000  0.363636     12.000000
  0.000000  0.545455 -0.000000      6.000000
  0.090909  0.636364 -0.090909     24.000000
  0.181818  0.727273 -0.181818     24.000000
 -0.727273 -0.181818  0.727273     24.000000
 -0.636364 -0.090909  0.636364     24.000000
 -0.545455 -0.000000  0.545455     12.000000
  0.000000  0.727273  0.000000      6.000000
  0.090909  0.818182 -0.090909     24.000000
 -0.818182 -0.090909  0.818182     24.000000
 -0.727273 -0.000000  0.727273     12.000000
  0.000000  0.909091  0.000000      6.000000
 -0.909091  0.000000  0.909091     12.000000
  0.181818  0.363636 -0.000000     24.000000
  0.272727  0.454545 -0.090909     48.000000
  0.363636  0.545455 -0.181818     48.000000
 -0.545455 -0.363636  0.727273     48.000000
  0.181818  0.545455 -0.000000     24.000000
  0.272727  0.636364 -0.090909     48.000000
 -0.636364 -0.272727  0.818182     48.000000
 -0.545455 -0.181818  0.727273     48.000000
 -0.454545 -0.090909  0.636364     48.000000
 -0.363636  0.000000  0.545455     24.000000
  0.181818  0.727273  0.000000     24.000000
 -0.727273 -0.181818  0.909091     48.000000
 -0.636364 -0.090909  0.818182     48.000000
 -0.545455 -0.000000  0.727273     24.000000
 -0.818182 -0.090909  1.000000     24.000000
 -0.727273 -0.000000  0.909091     24.000000
 -0.636364 -0.272727  1.000000     24.000000
 -0.545455 -0.181818  0.909091     48.000000
 -0.636364 -0.090909  1.000000     24.000000
 -0.545455 -0.000000  0.909091     24.000000
 


--------------------------------------------------------------------------------------------------------




 Dimension of arrays:
   k-points           NKPTS =     56   k-points in BZ     NKDIM =     56   number of bands    NBANDS=      8
   number of dos      NEDOS =    301   number of ions     NIONS =      2
   non local maximal  LDIM  =      6   non local SUM 2l+1 LMDIM =     18
   total plane-waves  NPLWV =  27000
   max r-space proj   IRMAX =   5065   max aug-charges    IRDMAX=  33308
   dimension x,y,z NGX =    30 NGY =   30 NGZ =   30
   dimension x,y,z NGXF=    60 NGYF=   60 NGZF=   60
   support grid    NGXF=    60 NGYF=   60 NGZF=   60
   ions per type =               2
   NGX,Y,Z   is equivalent  to a cutoff of  12.99, 12.99, 12.99 a.u.
   NGXF,Y,Z  is equivalent  to a cutoff of  25.98, 25.98, 25.98 a.u.

 SYSTEM =  Silicon                                 
 POSCAR =  system Si                               

 Startparameter for this run:
   NWRITE =      2    write-flag & timer
   PREC   = accura    normal or accurate (medium, high low for compatibility)
   ISTART =      0    job   : 0-new  1-cont  2-samecut
   ICHARG =      2    charge: 1-file 2-atom 10-const
   ISPIN  =      1    spin polarized calculation?
   LNONCOLLINEAR =      F non collinear calculations
   LSORBIT =      F    spin-orbit coupling
   INIWAV =      1    electr: 0-lowe 1-rand  2-diag
   LASPH  =      F    aspherical Exc in radial PAW
 Electronic Relaxation 1
   ENCUT  =  520.0 eV  38.22 Ry    6.18 a.u.   7.14  7.14  7.14*2*pi/ulx,y,z
   ENINI  =  520.0     initial cutoff
   ENAUG  =  413.0 eV  augmentation charge cutoff
   NELM   =     60;   NELMIN=  2; NELMDL= -5     # of ELM steps 
   EDIFF  = 0.1E-05   stopping-criterion for ELM
   LREAL  =      T    real-space projection
   NLSPLINE    = F    spline interpolate recip. space projectors
   LCOMPAT=      F    compatible to vasp.4.4
   GGA_COMPAT  = T    GGA compatible to vasp.4.4-vasp.4.6
   LMAXPAW     = -100 max onsite density
   LMAXMIX     =    2 max onsite mixed and CHGCAR
   VOSKOWN=      0    Vosko Wilk Nusair interpolation
   ROPT   =   -0.00025
 Ionic relaxation
   EDIFFG = -.2E-01   stopping-criterion for IOM
   NSW    =     50    number of steps for IOM
   NBLOCK =      1;   KBLOCK =     50    inner block; outer block 
   IBRION =      2    ionic relax: 0-MD 1-quasi-New 2-CG
   NFREE  =      1    steps in history (QN), initial steepest desc. (CG)
   ISIF   =      3    stress and relaxation
   IWAVPR =     11    prediction:  0-non 1-charg 2-wave 3-comb
   ISYM   =      2    0-nonsym 1-usesym 2-fastsym
   LCORR  =      T    Harris-Foulkes like correction to forces

   POTIM  = 0.5000    time-step for ionic-motion
   TEIN   =    0.0    initial temperature
   TEBEG  =    0.0;   TEEND  =   0.0 temperature during run
   SMASS  =  -3.00    Nose mass-parameter (am)
   estimated Nose-frequenzy (Omega)   =  0.10E-29 period in steps = 0.13E+47 mass=  -0.337E-27a.u.
   SCALEE = 1.0000    scale energy and forces
   NPACO  =    256;   APACO  = 10.0  distance and # of slots for P.C.
   PSTRESS=    0.0 pullay stress

  Mass of Ions in am
   POMASS =  28.09
  Ionic Valenz
   ZVAL   =   4.00
  Atomic Wigner-Seitz radii
   RWIGS  =  -1.00
  virtual crystal weights 
   VCA    =   1.00
   NELECT =       8.0000    total number of electrons
   NUPDOWN=      -1.0000    fix difference up-down

 DOS related values:
   EMIN   =  10.00;   EMAX   =-10.00  energy-range for DOS
   EFERMI =   0.00
   ISMEAR =     1;   SIGMA  =   0.10  broadening in eV -4-tet -1-fermi 0-gaus

 Electronic relaxation 2 (details)
   IALGO  =     38    algorithm
   LDIAG  =      T    sub-space diagonalisation (order eigenvalues)
   LSUBROT=      F    optimize rotation matrix (better conditioning)
   TURBO    =      0    0=normal 1=particle mesh
   IRESTART =      0    0=no restart 2=restart with 2 vectors
   NREBOOT  =      0    no. of reboots
   NMIN     =      0    reboot dimension
   EREF     =   0.00    reference energy to select bands
   IMIX   =      4    mixing-type and parameters
     AMIX     =   0.40;   BMIX     =  1.00
     AMIX_MAG =   1.60;   BMIX_MAG =  1.00
     AMIN     =   0.10
     WC   =   100.;   INIMIX=   1;  MIXPRE=   1;  MAXMIX= -45

 Intra band minimization:
   WEIMIN = 0.0010     energy-eigenvalue tresh-hold
   EBREAK =  0.31E-07  absolut break condition
   DEPER  =   0.30     relativ break condition  

   TIME   =   0.40     timestep for ELM

  volume/ion in A,a.u.               =      20.01       135.05
  Fermi-wavevector in a.u.,A,eV,Ry     =   0.957176  1.808800 12.465458  0.916185
  Thomas-Fermi vector in A             =   2.086170
 
 Write flags
   LWAVE        =      T    write WAVECAR
   LDOWNSAMPLE  =      F    k-point downsampling of WAVECAR
   LCHARG       =      T    write CHGCAR
   LVTOT        =      F    write LOCPOT, total local potential
   LVHAR        =      F    write LOCPOT, Hartree potential only
   LELF         =      F    write electronic localiz. function (ELF)
   LORBIT       =      0    0 simple, 1 ext, 2 COOP (PROOUT), +10 PAW based schemes


 Dipole corrections
   LMONO  =      F    monopole corrections only (constant potential shift)
   LDIPOL =      F    correct potential (dipole corrections)
   IDIPOL =      0    1-x, 2-y, 3-z, 4-all directions 
   EPSILON=  1.0000000 bulk dielectric constant

 Exchange correlation treatment:
   GGA     =    --    GGA type
   LEXCH   =     8    internal setting for exchange type
   LIBXC   =     F    Libxc                    
   VOSKOWN =     0    Vosko Wilk Nusair interpolation
   LHFCALC =     F    Hartree Fock is set to
   LHFONE  =     F    Hartree Fock one center treatment
   AEXX    =    0.0000 exact exchange contribution

 Linear response parameters
   LEPSILON=     F    determine dielectric tensor
   LRPA    =     F    only Hartree local field effects (RPA)
   LNABLA  =     F    use nabla operator in PAW spheres
   LVEL    =     F    velocity operator in full k-point grid
   CSHIFT  =0.1000    complex shift for real part using Kramers Kronig
   OMEGAMAX=  -1.0    maximum frequency
   DEG_THRESHOLD= 0.2000000E-02 threshold for treating states as degnerate
   RTIME   =   -0.100 relaxation time in fs
  (WPLASMAI=    0.000 imaginary part of plasma frequency in eV, 0.658/RTIME)
   DFIELD  = 0.0000000 0.0000000 0.0000000 field for delta impulse in time
 
  Optional k-point grid parameters
   LKPOINTS_OPT  =     F    use optional k-point grid
   KPOINTS_OPT_MODE=     1    mode for optional k-point grid
 
 Orbital magnetization related:
   ORBITALMAG=     F  switch on orbital magnetization
   LCHIMAG   =     F  perturbation theory with respect to B field
   DQ        =  0.001000  dq finite difference perturbation B field
   LLRAUG    =     F  two centre corrections for induced B field



--------------------------------------------------------------------------------------------------------


 conjugate gradient relaxation of ions
 charge density and potential will be updated during run
 non-spin polarized calculation
 Variant of blocked Davidson
 Davidson routine will perform the subspace rotation
 perform sub-space diagonalisation
    after iterative eigenvector-optimisation
 modified Broyden-mixing scheme, WC =      100.0
 initial mixing is a Kerker type mixing with AMIX =  0.4000 and BMIX =      1.0000
 Hartree-type preconditioning will be used
 using additional bands            4
 real space projection scheme for non local part
 use partial core corrections
 calculate Harris-corrections to forces 
   (improved forces if not selfconsistent)
 use gradient corrections 
 use of overlap-Matrix (Vanderbilt PP)
 Methfessel and Paxton  Order N= 1 SIGMA  =   0.10


--------------------------------------------------------------------------------------------------------


  energy-cutoff  :      520.00
  volume of cell :       40.03
      direct lattice vectors                 reciprocal lattice vectors
     2.715000000  2.715000000  0.000000000     0.184162063  0.184162063 -0.184162063
     0.000000000  2.715000000  2.715000000    -0.184162063  0.184162063  0.184162063
     2.715000000  0.000000000  2.715000000     0.184162063 -0.184162063  0.184162063

  length of vectors
     3.839589822  3.839589822  3.839589822     0.318978049  0.318978049  0.318978049


 
 k-points in units of 2pi/SCALE and weight: read from INCAR                         
   0.00000000  0.00000000  0.00000000       0.001
   0.09090909  0.09090909 -0.09090909       0.006
   0.18181818  0.18181818 -0.18181818       0.006
   0.27272727  0.27272727 -0.27272727       0.006
   0.36363636  0.36363636 -0.36363636       0.006
   0.45454545  0.45454545 -0.45454545       0.006
   0.00000000  0.18181818  0.00000000       0.005
   0.09090909  0.27272727 -0.09090909       0.018
   0.18181818  0.36363636 -0.18181818       0.018
   0.27272727  0.45454545 -0.27272727       0.018
   0.36363636  0.54545455 -0.36363636       0.018
  -0.54545455 -0.36363636  0.54545455       0.018
  -0.45454545 -0.27272727  0.45454545       0.018
  -0.36363636 -0.18181818  0.36363636       0.018
  -0.27272727 -0.09090909  0.27272727       0.018
  -0.18181818 -0.00000000  0.18181818       0.009
   0.00000000  0.36363636  0.00000000       0.005
   0.09090909  0.45454545 -0.09090909       0.018
   0.18181818  0.54545455 -0.18181818       0.018
   0.27272727  0.63636364 -0.27272727       0.018
  -0.63636364 -0.27272727  0.63636364       0.018
  -0.54545455 -0.18181818  0.54545455       0.018
  -0.45454545 -0.09090909  0.45454545       0.018
  -0.36363636  0.00000000  0.36363636       0.009
   0.00000000  0.54545455 -0.00000000       0.005
   0.09090909  0.63636364 -0.09090909       0.018
   0.18181818  0.72727273 -0.18181818       0.018
  -0.72727273 -0.18181818  0.72727273       0.018
  -0.63636364 -0.09090909  0.63636364       0.018
  -0.54545455 -0.00000000  0.54545455       0.009
   0.00000000  0.72727273  0.00000000       0.005
   0.09090909  0.81818182 -0.09090909       0.018
  -0.81818182 -0.09090909  0.81818182       0.018
  -0.72727273 -0.00000000  0.72727273       0.009
   0.00000000  0.90909091  0.00000000       0.005
  -0.90909091  0.00000000  0.90909091       0.009
   0.18181818  0.36363636 -0.00000000       0.018
   0.27272727  0.45454545 -0.09090909       0.036
   0.36363636  0.54545455 -0.18181818       0.036
  -0.54545455 -0.36363636  0.72727273       0.036
   0.18181818  0.54545455 -0.00000000       0.018
   0.27272727  0.63636364 -0.09090909       0.036
  -0.63636364 -0.27272727  0.81818182       0.036
  -0.54545455 -0.18181818  0.72727273       0.036
  -0.45454545 -0.09090909  0.63636364       0.036
  -0.36363636  0.00000000  0.54545455       0.018
   0.18181818  0.72727273  0.00000000       0.018
  -0.72727273 -0.18181818  0.90909091       0.036
  -0.63636364 -0.09090909  0.81818182       0.036
  -0.54545455 -0.00000000  0.72727273       0.018
  -0.81818182 -0.09090909  1.00000000       0.018
  -0.72727273 -0.00000000  0.90909091       0.018
  -0.63636364 -0.27272727  1.00000000       0.018
  -0.54545455 -0.18181818  0.90909091       0.036
  -0.63636364 -0.09090909  1.00000000       0.018
  -0.54545455 -0.00000000  0.90909091       0.018
 
 k-points in reciprocal lattice and weights: read from INCAR                         
   0.00000000  0.00000000  0.00000000       0.001
   0.09090909  0.00000000 -0.00000000       0.006
   0.18181818 -0.00000000 -0.00000000       0.006
   0.27272727 -0.00000000  0.00000000       0.006
   0.36363636 -0.00000000  0.00000000       0.006
   0.45454545  0.00000000  0.00000000       0.006
   0.09090909  0.09090909  0.00000000       0.005
   0.18181818  0.09090909 -0.00000000       0.018
   0.27272727  0.09090909 -0.00000000       0.018
   0.36363636  0.09090909  0.00000000       0.018
   0.45454545  0.09090909  0.00000000       0.018
  -0.45454545  0.09090909  0.00000000       0.018
  -0.36363636  0.09090909 -0.00000000       0.018
  -0.27272727  0.09090909 -0.00000000       0.018
  -0.18181818  0.09090909 -0.00000000       0.018
  -0.09090909  0.09090909  0.00000000       0.009
   0.18181818  0.18181818  0.00000000       0.005
   0.27272727  0.18181818 -0.00000000       0.018
   0.36363636  0.18181818 -0.00000000       0.018
   0.45454545  0.18181818  0.00000000       0.018
  -0.45454545  0.18181818  0.00000000       0.018
  -0.36363636  0.18181818  0.00000000       0.018
  -0.27272727  0.18181818 -0.00000000       0.018
  -0.18181818  0.18181818 -0.00000000       0.009
   0.27272727  0.27272727  0.00000000       0.005
   0.36363636  0.27272727 -0.00000000       0.018
   0.45454545  0.27272727 -0.00000000       0.018
  -0.45454545  0.27272727  0.00000000       0.018
  -0.36363636  0.27272727  0.00000000       0.018
  -0.27272727  0.27272727  0.00000000       0.009
   0.36363636  0.36363636  0.00000000       0.005
   0.45454545  0.36363636 -0.00000000       0.018
  -0.45454545  0.36363636 -0.00000000       0.018
  -0.36363636  0.36363636  0.00000000       0.009
   0.45454545  0.45454545  0.00000000       0.005
  -0.45454545  0.45454545 -0.00000000       0.009
   0.27272727  0.18181818  0.09090909       0.018
   0.36363636  0.18181818  0.09090909       0.036
   0.45454545  0.18181818  0.09090909       0.036
  -0.45454545  0.18181818  0.09090909       0.036
   0.36363636  0.27272727  0.09090909       0.018
   0.45454545  0.27272727  0.09090909       0.036
  -0.45454545  0.27272727  0.09090909       0.036
  -0.36363636  0.27272727  0.09090909       0.036
  -0.27272727  0.27272727  0.09090909       0.036
  -0.18181818  0.27272727  0.09090909       0.018
   0.45454545  0.36363636  0.09090909       0.018
  -0.45454545  0.36363636  0.09090909       0.036
  -0.36363636  0.36363636  0.09090909       0.036
  -0.27272727  0.36363636  0.09090909       0.018
  -0.45454545  0.45454545  0.09090909       0.018
  -0.36363636  0.45454545  0.09090909       0.018
  -0.45454545  0.36363636  0.18181818       0.018
  -0.36363636  0.36363636  0.18181818       0.036
  -0.36363636  0.45454545  0.18181818       0.018
  -0.27272727  0.45454545  0.18181818       0.018
 
 position of ions in fractional coordinates (direct lattice) 
   0.00000000  0.00000000  0.00000000
   0.25000000  0.25000000  0.25000000
 
 position of ions in cartesian coordinates  (Angst):
   0.00000000  0.00000000  0.00000000
   1.35750000  1.35750000  1.35750000
 


--------------------------------------------------------------------------------------------------------


 k-point   1 :   0.0000 0.0000 0.0000  plane waves:    1067
 k-point   2 :   0.0909 0.0000-0.0000  plane waves:    1076
 k-point   3 :   0.1818-0.0000-0.0000  plane waves:    1074
 k-point   4 :   0.2727-0.0000 0.0000  plane waves:    1077
 k-point   5 :   0.3636-0.0000 0.0000  plane waves:    1083
 k-point   6 :   0.4545 0.0000 0.0000  plane waves:    1074
 k-point   7 :   0.0909 0.0909 0.0000  plane waves:    1074
 k-point   8 :   0.1818 0.0909-0.0000  plane waves:    1071
 k-point   9 :   0.2727 0.0909-0.0000  plane waves:    1071
 k-point  10 :   0.3636 0.0909 0.0000  plane waves:    1078
 k-point  11 :   0.4545 0.0909 0.0000  plane waves:    1077
 k-point  12 :  -0.4545 0.0909 0.0000  plane waves:    1082
 k-point  13 :  -0.3636 0.0909-0.0000  plane waves:    1079
 k-point  14 :  -0.2727 0.0909-0.0000  plane waves:    1079
 k-point  15 :  -0.1818 0.0909-0.0000  plane waves:    1069
 k-point  16 :  -0.0909 0.0909 0.0000  plane waves:    1063
 k-point  17 :   0.1818 0.1818 0.0000  plane waves:    1062
 k-point  18 :   0.2727 0.1818-0.0000  plane waves:    1068
 k-point  19 :   0.3636 0.1818-0.0000  plane waves:    1078
 k-point  20 :   0.4545 0.1818 0.0000  plane waves:    1084
 k-point  21 :  -0.4545 0.1818 0.0000  plane waves:    1081
 k-point  22 :  -0.3636 0.1818 0.0000  plane waves:    1082
 k-point  23 :  -0.2727 0.1818-0.0000  plane waves:    1072
 k-point  24 :  -0.1818 0.1818-0.0000  plane waves:    1075
 k-point  25 :   0.2727 0.2727 0.0000  plane waves:    1074
 k-point  26 :   0.3636 0.2727-0.0000  plane waves:    1061
 k-point  27 :   0.4545 0.2727-0.0000  plane waves:    1078
 k-point  28 :  -0.4545 0.2727 0.0000  plane waves:    1088
 k-point  29 :  -0.3636 0.2727 0.0000  plane waves:    1087
 k-point  30 :  -0.2727 0.2727 0.0000  plane waves:    1083
 k-point  31 :   0.3636 0.3636 0.0000  plane waves:    1070
 k-point  32 :   0.4545 0.3636-0.0000  plane waves:    1076
 k-point  33 :  -0.4545 0.3636-0.0000  plane waves:    1082
 k-point  34 :  -0.3636 0.3636 0.0000  plane waves:    1073
 k-point  35 :   0.4545 0.4545 0.0000  plane waves:    1082
 k-point  36 :  -0.4545 0.4545-0.0000  plane waves:    1078
 k-point  37 :   0.2727 0.1818 0.0909  plane waves:    1069
 k-point  38 :   0.3636 0.1818 0.0909  plane waves:    1074
 k-point  39 :   0.4545 0.1818 0.0909  plane waves:    1083
 k-point  40 :  -0.4545 0.1818 0.0909  plane waves:    1085
 k-point  41 :   0.3636 0.2727 0.0909  plane waves:    1066
 k-point  42 :   0.4545 0.2727 0.0909  plane waves:    1075
 k-point  43 :  -0.4545 0.2727 0.0909  plane waves:    1073
 k-point  44 :  -0.3636 0.2727 0.0909  plane waves:    1082
 k-point  45 :  -0.2727 0.2727 0.0909  plane waves:    1079
 k-point  46 :  -0.1818 0.2727 0.0909  plane waves:    1068
 k-point  47 :   0.4545 0.3636 0.0909  plane waves:    1069
 k-point  48 :  -0.4545 0.3636 0.0909  plane waves:    1079
 k-point  49 :  -0.3636 0.3636 0.0909  plane waves:    1086
 k-point  50 :  -0.2727 0.3636 0.0909  plane waves:    1092
 k-point  51 :  -0.4545 0.4545 0.0909  plane waves:    1080
 k-point  52 :  -0.3636 0.4545 0.0909  plane waves:    1083
 k-point  53 :  -0.4545 0.3636 0.1818  plane waves:    1078
 k-point  54 :  -0.3636 0.3636 0.1818  plane waves:    1076
 k-point  55 :  -0.3636 0.4545 0.1818  plane waves:    1081
 k-point  56 :  -0.2727 0.4545 0.1818  plane waves:    1083

 maximum and minimum number of plane-waves per node :      1092     1061

 maximum number of plane-waves:      1092
 maximum index in each direction: 
   IXMAX=    7   IYMAX=    7   IZMAX=    7
   IXMIN=   -7   IYMIN=   -7   IZMIN=   -7


 serial   3D FFT for wavefunctions
 parallel 3D FFT for charge:
    minimum data exchange during FFTs selected (reduces bandwidth)


 total amount of memory used by VASP MPI-rank0    59123. kBytes
=======================================================================

   base      :      30000. kBytes
   nonlr-proj:       1719. kBytes
   fftplans  :       7596. kBytes
   grid      :      11692. kBytes
   one-center:         31. kBytes
   wavefun   :       8085. kBytes
 
     INWAV:  cpu time      0.0000: real time      0.0007
 Broyden mixing: mesh for mixing (old mesh)
   NGX = 15   NGY = 15   NGZ = 15
  (NGX  = 60   NGY  = 60   NGZ  = 60)
  gives a total of   3375 points

 initial charge density was supplied:
 charge density of overlapping atoms calculated
 number of electron       8.0000000 magnetization 
 keeping initial charge density in first step


--------------------------------------------------------------------------------------------------------


 Maximum index for non-local projection operator         4897
 Maximum index for augmentation-charges        32181 (set IRDMAX)


--------------------------------------------------------------------------------------------------------


 First call to EWALD:  gamma=   0.518
 Maximum number of real-space cells 3x 3x 3
 Maximum number of reciprocal cells 3x 3x 3

    FEWALD:  cpu time      0.0004: real time      0.0079


--------------------------------------- Iteration      1(   1)  ---------------------------------------


    POTLOK:  cpu time      0.0562: real time      0.0563
    SETDIJ:  cpu time      0.0069: real time      0.0069
     EDDAV:  cpu time      0.8814: real time      0.8818
       DOS:  cpu time      0.0007: real time      0.0007
    --------------------------------------------
      LOOP:  cpu time      0.9453: real time      0.9457

 eigenvalue-minimisations  :  1048
 total energy-change (2. order) : 0.4735515E+01  (-0.4000870E+03)
 number of electron       8.0000000 magnetization 
 augmentation part        8.0000000 magnetization 

 Free energy of the ion-electron system (eV)
  ---------------------------------------------------
  alpha Z        PSCENC =         6.08881246
  Ewald energy   TEWEN  =      -228.56352493
  -Hartree energ DENC   =       -11.07014067
  -exchange      EXHF   =         0.00000000
  -V(xc)+E(xc)   XCENC  =       -18.88190738
  PAW double counting   =       176.77094182     -141.06103538
  entropy T*S    EENTRO =        -0.00005319
  eigenvalues    EBANDS =        15.31971926
  atomic energy  EATOM  =       206.13270273
  Solvation  Ediel_sol  =         0.00000000
  ---------------------------------------------------
  free energy    TOTEN  =         4.73551473 eV

  energy without entropy =        4.73556792  energy(sigma->0) =        4.73553246


--------------------------------------------------------------------------------------------------------




--------------------------------------- Iteration      1(   2)  ---------------------------------------


     EDDAV:  cpu time      1.0024: real time      1.0033
       DOS:  cpu time      0.0008: real time      0.0008
    --------------------------------------------
      LOOP:  cpu time      1.0033: real time      1.0631

 eigenvalue-minimisations  :  1296
 total energy-change (2. order) :-0.1538084E+02  (-0.1403761E+02)
 number of electron       8.0000000 magnetization 
 augmentation part        8.0000000 magnetization 

 Free energy of the ion-electron system (eV)
  ---------------------------------------------------
  alpha Z        PSCENC =         6.08881246
  Ewald energy   TEWEN  =      -228.56352493
  -Hartree energ DENC   =       -11.07014067
  -exchange      EXHF   =         0.00000000
  -V(xc)+E(xc)   XCENC  =       -18.88190738
  PAW double counting   =       176.77094182     -141.06103538
  entropy T*S    EENTRO =         0.00021442
  eigenvalues    EBANDS =        -0.06138372
  atomic energy  EATOM  =       206.13270273
  Solvation  Ediel_sol  =         0.00000000
  ---------------------------------------------------
  free energy    TOTEN  =       -10.64532064 eV

  energy without entropy =      -10.64553506  energy(sigma->0) =      -10.64539211


--------------------------------------------------------------------------------------------------------




--------------------------------------- Iteration      1(   3)  ---------------------------------------


     EDDAV:  cpu time      0.8749: real time      0.9342
       DOS:  cpu time      0.0008: real time      0.0008
    --------------------------------------------
      LOOP:  cpu time      0.8757: real time      0.8882

 eigenvalue-minimisations  :  1128
 total energy-change (2. order) :-0.3726366E+00  (-0.3731370E+00)
 number of electron       8.0000000 magnetization 
 augmentation part        8.0000000 magnetization 

 Free energy of the ion-electron system (eV)
  ---------------------------------------------------
  alpha Z        PSCENC =         6.08881246
  Ewald energy   TEWEN  =      -228.56352493
  -Hartree energ DENC   =       -11.07014067
  -exchange      EXHF   =         0.00000000
  -V(xc)+E(xc)   XCENC  =       -18.88190738
  PAW double counting   =       176.77094182     -141.06103538
  entropy T*S    EENTRO =         0.00005152
  eigenvalues    EBANDS =        -0.43385742
  atomic energy  EATOM  =       206.13270273
  Solvation  Ediel_sol  =         0.00000000
  ---------------------------------------------------
  free energy    TOTEN  =       -11.01795725 eV

  energy without entropy =      -11.01800876  energy(sigma->0) =      -11.01797442


--------------------------------------------------------------------------------------------------------




--------------------------------------- Iteration      1(   4)  ---------------------------------------


     EDDAV:  cpu time      1.1683: real time      1.1809
       DOS:  cpu time      0.0008: real time      0.0008
    --------------------------------------------
      LOOP:  cpu time      1.1691: real time      1.1828

 eigenvalue-minimisations  :  1600
 total energy-change (2. order) :-0.7059840E-02  (-0.7059988E-02)
 number of electron       8.0000000 magnetization 
 augmentation part        8.0000000 magnetization 

 Free energy of the ion-electron system (eV)
  ---------------------------------------------------
  alpha Z        PSCENC =         6.08881246
  Ewald energy   TEWEN  =      -228.56352493
  -Hartree energ DENC   =       -11.07014067
  -exchange      EXHF   =         0.00000000
  -V(xc)+E(xc)   XCENC  =       -18.88190738
  PAW double counting   =       176.77094182     -141.06103538
  entropy T*S    EENTRO =         0.00004434
  eigenvalues    EBANDS =        -0.44091008
  atomic energy  EATOM  =       206.13270273
  Solvation  Ediel_sol  =         0.00000000
  ---------------------------------------------------
  free energy    TOTEN  =       -11.02501709 eV

  energy without entropy =      -11.02506142  energy(sigma->0) =      -11.02503187


--------------------------------------------------------------------------------------------------------




--------------------------------------- Iteration      1(   5)  ---------------------------------------


     EDDAV:  cpu time      1.0049: real time      1.0186
       DOS:  cpu time      0.0008: real time      0.0008
    CHARGE:  cpu time      0.0601: real time      0.0791
    MIXING:  cpu time      0.0020: real time      0.0020
    --------------------------------------------
      LOOP:  cpu time      1.0678: real time      1.0923

 eigenvalue-minimisations  :  1320
 total energy-change (2. order) :-0.7411426E-04  (-0.7411437E-04)
 number of electron       8.0000000 magnetization 
 augmentation part       -0.4865496 magnetization 

 Broyden mixing:
  rms(total) = 0.30168E+00    rms(broyden)= 0.30168E+00
  rms(prec ) = 0.86856E+00
  weight for this iteration     100.00

 Free energy of the ion-electron system (eV)
  ---------------------------------------------------
  alpha Z        PSCENC =         6.08881246
  Ewald energy   TEWEN  =      -228.56352493
  -Hartree energ DENC   =       -11.07014067
  -exchange      EXHF   =         0.00000000
  -V(xc)+E(xc)   XCENC  =       -18.88190738
  PAW double counting   =       176.77094182     -141.06103538
  entropy T*S    EENTRO =         0.00004417
  eigenvalues    EBANDS =        -0.44098403
  atomic energy  EATOM  =       206.13270273
  Solvation  Ediel_sol  =         0.00000000
  ---------------------------------------------------
  free energy    TOTEN  =       -11.02509120 eV

  energy without entropy =      -11.02513537  energy(sigma->0) =      -11.02510592


--------------------------------------------------------------------------------------------------------




--------------------------------------- Iteration      1(   6)  ---------------------------------------


    POTLOK:  cpu time      0.0518: real time      0.0572
    SETDIJ:  cpu time      0.0068: real time      0.0068
     EDDAV:  cpu time      1.0278: real time      1.0285
       DOS:  cpu time      0.0008: real time      0.0008
    CHARGE:  cpu time      0.0615: real time      0.0677
    MIXING:  cpu time      0.0022: real time      0.0066
    --------------------------------------------
      LOOP:  cpu time      1.1509: real time      1.1623

 eigenvalue-minimisations  :  1312
 total energy-change (2. order) : 0.1262070E+00  (-0.7976372E-02)
 number of electron       8.0000000 magnetization 
 augmentation part       -0.4813611 magnetization 

 Broyden mixing:
  rms(total) = 0.17899E+00    rms(broyden)= 0.17899E+00
  rms(prec ) = 0.51189E+00
  weight for this iteration     100.00

 eigenvalues of (default mixing * dielectric matrix)
  average eigenvalue GAMMA=   2.4396
  2.4396

 Free energy of the ion-electron system (eV)
  ---------------------------------------------------
  alpha Z        PSCENC =         6.08881246
  Ewald energy   TEWEN  =      -228.56352493
  -Hartree energ DENC   =       -12.54107889
  -exchange      EXHF   =         0.00000000
  -V(xc)+E(xc)   XCENC  =       -18.63978312
  PAW double counting   =       210.55090184     -174.96174252
  entropy T*S    EENTRO =         0.00003948
  eigenvalues    EBANDS =         1.03478872
  atomic energy  EATOM  =       206.13270273
  Solvation  Ediel_sol  =         0.00000000
  ---------------------------------------------------
  free energy    TOTEN  =       -10.89888423 eV

  energy without entropy =      -10.89892371  energy(sigma->0) =      -10.89889739


--------------------------------------------------------------------------------------------------------




--------------------------------------- Iteration      1(   7)  ---------------------------------------


    POTLOK:  cpu time      0.0527: real time      0.0527
    SETDIJ:  cpu time      0.0069: real time      0.0069
     EDDAV:  cpu time      1.0341: real time      1.0345
       DOS:  cpu time      0.0008: real time      0.0008
    CHARGE:  cpu time      0.0614: real time      0.0614
    MIXING:  cpu time      0.0021: real time      0.0021
    --------------------------------------------
      LOOP:  cpu time      1.1578: real time      1.1926

 eigenvalue-minimisations  :  1256
 total energy-change (2. order) : 0.5912526E-01  (-0.1456021E-01)
 number of electron       8.0000000 magnetization 
 augmentation part       -0.4747400 magnetization 

 Broyden mixing:
  rms(total) = 0.14958E-01    rms(broyden)= 0.14958E-01
  rms(prec ) = 0.40129E-01
  weight for this iteration     100.00

 eigenvalues of (default mixing * dielectric matrix)
  average eigenvalue GAMMA=   2.4617
  2.4617  2.4617

 Free energy of the ion-electron system (eV)
  ---------------------------------------------------
  alpha Z        PSCENC =         6.08881246
  Ewald energy   TEWEN  =      -228.56352493
  -Hartree energ DENC   =       -14.91120342
  -exchange      EXHF   =         0.00000000
  -V(xc)+E(xc)   XCENC  =       -18.23757749
  PAW double counting   =       261.83198856     -226.41023131
  entropy T*S    EENTRO =         0.00003372
  eigenvalues    EBANDS =         3.22924071
  atomic energy  EATOM  =       206.13270273
  Solvation  Ediel_sol  =         0.00000000
  ---------------------------------------------------
  free energy    TOTEN  =       -10.83975896 eV

  energy without entropy =      -10.83979268  energy(sigma->0) =      -10.83977020


--------------------------------------------------------------------------------------------------------




--------------------------------------- Iteration      1(   8)  ---------------------------------------


    POTLOK:  cpu time      0.0511: real time      0.0854
    SETDIJ:  cpu time      0.0066: real time      0.0066
     EDDAV:  cpu time      0.8917: real time      0.9301
       DOS:  cpu time      0.0008: real time      0.0008
    CHARGE:  cpu time      0.0612: real time      0.0613
    MIXING:  cpu time      0.0021: real time      0.0021
    --------------------------------------------
      LOOP:  cpu time      1.0135: real time      1.0519

 eigenvalue-minimisations  :  1056
 total energy-change (2. order) :-0.1242253E-02  (-0.3999384E-03)
 number of electron       8.0000000 magnetization 
 augmentation part       -0.4752635 magnetization 

 Broyden mixing:
  rms(total) = 0.25739E-02    rms(broyden)= 0.25739E-02
  rms(prec ) = 0.83215E-02
  weight for this iteration     100.00

 eigenvalues of (default mixing * dielectric matrix)
  average eigenvalue GAMMA=   2.1244
  1.3529  2.8147  2.2056

 Free energy of the ion-electron system (eV)
  ---------------------------------------------------
  alpha Z        PSCENC =         6.08881246
  Ewald energy   TEWEN  =      -228.56352493
  -Hartree energ DENC   =       -14.88011736
  -exchange      EXHF   =         0.00000000
  -V(xc)+E(xc)   XCENC  =       -18.22320954
  PAW double counting   =       257.99338276     -222.55471601
  entropy T*S    EENTRO =         0.00003352
  eigenvalues    EBANDS =         3.16563514
  atomic energy  EATOM  =       206.13270273
  Solvation  Ediel_sol  =         0.00000000
  ---------------------------------------------------
  free energy    TOTEN  =       -10.84100122 eV

  energy without entropy =      -10.84103473  energy(sigma->0) =      -10.84101239


--------------------------------------------------------------------------------------------------------




--------------------------------------- Iteration      1(   9)  ---------------------------------------


    POTLOK:  cpu time      0.0512: real time      0.0512
    SETDIJ:  cpu time      0.0067: real time      0.0067
     EDDAV:  cpu time      1.1636: real time      1.1641
       DOS:  cpu time      0.0007: real time      0.0007
    CHARGE:  cpu time      0.0610: real time      0.0813
    MIXING:  cpu time      0.0021: real time      0.0021
    --------------------------------------------
      LOOP:  cpu time      1.2854: real time      1.3061

 eigenvalue-minimisations  :  1472
 total energy-change (2. order) :-0.1113384E-03  (-0.2106781E-04)
 number of electron       8.0000000 magnetization 
 augmentation part       -0.4752420 magnetization 

 Broyden mixing:
  rms(total) = 0.15204E-02    rms(broyden)= 0.15204E-02
  rms(prec ) = 0.37280E-02
  weight for this iteration     100.00

 eigenvalues of (default mixing * dielectric matrix)
  average eigenvalue GAMMA=   2.2396
  0.9885  3.1188  2.6384  2.2126

 Free energy of the ion-electron system (eV)
  ---------------------------------------------------
  alpha Z        PSCENC =         6.08881246
  Ewald energy   TEWEN  =      -228.56352493
  -Hartree energ DENC   =       -14.91688229
  -exchange      EXHF   =         0.00000000
  -V(xc)+E(xc)   XCENC  =       -18.21611466
  PAW double counting   =       258.13032925     -222.69212530
  entropy T*S    EENTRO =         0.00003338
  eigenvalues    EBANDS =         3.19565679
  atomic energy  EATOM  =       206.13270273
  Solvation  Ediel_sol  =         0.00000000
  ---------------------------------------------------
  free energy    TOTEN  =       -10.84111256 eV

  energy without entropy =      -10.84114594  energy(sigma->0) =      -10.84112368


--------------------------------------------------------------------------------------------------------




--------------------------------------- Iteration      1(  10)  ---------------------------------------


    POTLOK:  cpu time      0.0510: real time      0.0510
    SETDIJ:  cpu time      0.0067: real time      0.0091
     EDDAV:  cpu time      0.8895: real time      0.9143
       DOS:  cpu time      0.0008: real time      0.0008
    CHARGE:  cpu time      0.0575: real time      0.0874
    MIXING:  cpu time      0.0021: real time      0.0021
    --------------------------------------------
      LOOP:  cpu time      1.0076: real time      1.0701

 eigenvalue-minimisations  :  1136
 total energy-change (2. order) :-0.2093393E-04  (-0.3184542E-05)
 number of electron       8.0000000 magnetization 
 augmentation part       -0.4752090 magnetization 

 Broyden mixing:
  rms(total) = 0.14954E-03    rms(broyden)= 0.14954E-03
  rms(prec ) = 0.29800E-03
  weight for this iteration     100.00

 eigenvalues of (default mixing * dielectric matrix)
  average eigenvalue GAMMA=   2.0169
  3.1338  2.5673  2.1940  0.9907  1.1985

 Free energy of the ion-electron system (eV)
  ---------------------------------------------------
  alpha Z        PSCENC =         6.08881246
  Ewald energy   TEWEN  =      -228.56352493
  -Hartree energ DENC   =       -14.92524354
  -exchange      EXHF   =         0.00000000
  -V(xc)+E(xc)   XCENC  =       -18.21649500
  PAW double counting   =       257.85025764     -222.41195348
  entropy T*S    EENTRO =         0.00003331
  eigenvalues    EBANDS =         3.20427730
  atomic energy  EATOM  =       206.13270273
  Solvation  Ediel_sol  =         0.00000000
  ---------------------------------------------------
  free energy    TOTEN  =       -10.84113349 eV

  energy without entropy =      -10.84116680  energy(sigma->0) =      -10.84114459


--------------------------------------------------------------------------------------------------------




--------------------------------------- Iteration      1(  11)  ---------------------------------------


    POTLOK:  cpu time      0.0500: real time      0.0554
    SETDIJ:  cpu time      0.0067: real time      0.0067
     EDDAV:  cpu time      1.0305: real time      1.0309
       DOS:  cpu time      0.0008: real time      0.0008
    --------------------------------------------
      LOOP:  cpu time      1.0880: real time      1.1044

 eigenvalue-minimisations  :  1368
 total energy-change (2. order) : 0.2927192E-06  (-0.4575839E-07)
 number of electron       8.0000000 magnetization 
 augmentation part       -0.4752090 magnetization 

 Free energy of the ion-electron system (eV)
  ---------------------------------------------------
  alpha Z        PSCENC =         6.08881246
  Ewald energy   TEWEN  =      -228.56352493
  -Hartree energ DENC   =       -14.92524121
  -exchange      EXHF   =         0.00000000
  -V(xc)+E(xc)   XCENC  =       -18.21633276
  PAW double counting   =       257.87386803     -222.43549825
  entropy T*S    EENTRO =         0.00003331
  eigenvalues    EBANDS =         3.20404742
  atomic energy  EATOM  =       206.13270273
  Solvation  Ediel_sol  =         0.00000000
  ---------------------------------------------------
  free energy    TOTEN  =       -10.84113320 eV

  energy without entropy =      -10.84116651  energy(sigma->0) =      -10.84114430


--------------------------------------------------------------------------------------------------------




 average (electrostatic) potential at core
  the test charge radii are     1.1243
  (the norm of the test charge is              1.0000)
       1 -67.0430       2 -67.0430
 
 
 
 E-fermi :   5.5396     XC(G=0):  -9.3994     alpha+bet :-11.6158

 Fermi energy:         5.5395559471

 k-point     1 :       0.0000    0.0000    0.0000
  band No.  band energies     occupation 
      1      -6.4980      2.00000
      2       5.4654      1.94696
      3       5.4654      1.94696
      4       5.4654      1.94696
      5       8.0307     -0.00000
      6       8.0307     -0.00000
      7       8.0307     -0.00000
      8       8.8327      0.00000

 k-point     2 :       0.0909    0.0000   -0.0000
  band No.  band energies     occupation 
      1      -6.3897      2.00000
      2       4.4785      2.00000
      3       5.2975      2.00328
      4       5.2975      2.00328
      5       8.0614     -0.00000
      6       8.2779      0.00000
      7       8.2779      0.00000
      8       9.6110      0.00000

 k-point     3 :       0.1818   -0.0000   -0.0000
  band No.  band energies     occupation 
      1      -6.0690      2.00000
      2       2.7982      2.00000
      3       4.9560      2.00000
      4       4.9560      2.00000
      5       7.7589     -0.00000
      6       8.7522      0.00000
      7       8.7522      0.00000
      8      11.1936      0.00000

 k-point     4 :       0.2727   -0.0000    0.0000
  band No.  band energies     occupation 
      1      -5.5524      2.00000
      2       1.1355      2.00000
      3       4.6318      2.00000
      4       4.6318      2.00000
      5       7.4149     -0.00000
      6       8.9990      0.00000
      7       8.9990      0.00000
      8      12.7476      0.00000

 k-point     5 :       0.3636   -0.0000    0.0000
  band No.  band energies     occupation 
      1      -4.8909      2.00000
      2      -0.3235      2.00000
      3       4.3999      2.00000
      4       4.3999      2.00000
      5       7.1560     -0.00000
      6       8.9351      0.00000
      7       8.9351      0.00000
      8      13.3640      0.00000

 k-point     6 :       0.4545    0.0000    0.0000
  band No.  band energies     occupation 
      1      -4.2785      2.00000
      2      -1.3421      2.00000
      3       4.2816      2.00000
      4       4.2816      2.00000
      5       7.0210     -0.00000
      6       8.8248      0.00000
      7       8.8248      0.00000
      8      13.2231      0.00000

 k-point     7 :       0.0909    0.0909    0.0000
  band No.  band energies     occupation 
      1      -6.3534      2.00000
      2       4.6630      2.00000
      3       4.9698      2.00000
      4       4.9698      2.00000
      5       7.7101     -0.00000
      6       8.7037      0.00000
      7       8.7037      0.00000
      8       9.5594      0.00000

 k-point     8 :       0.1818    0.0909   -0.0000
  band No.  band energies     occupation 
      1      -6.1028      2.00000
      2       3.2996      2.00000
      3       4.5716      2.00000
      4       4.7580      2.00000
      5       7.7473     -0.00000
      6       8.7756      0.00000
      7       9.2981      0.00000
      8      10.4455      0.00000

 k-point     9 :       0.2727    0.0909   -0.0000
  band No.  band energies     occupation 
      1      -5.6489      2.00000
      2       1.6742      2.00000
      3       4.2518      2.00000
      4       4.3847      2.00000
      5       7.8800     -0.00000
      6       8.7628      0.00000
      7       9.6480      0.00000
      8      10.8250      0.00000

 k-point    10 :       0.3636    0.0909    0.0000
  band No.  band energies     occupation 
      1      -5.0260      2.00000
      2       0.1621      2.00000
      3       4.0019      2.00000
      4       4.0649      2.00000
      5       7.7332     -0.00000
      6       8.7870      0.00000
      7       9.5746      0.00000
      8      11.5998      0.00000

 k-point    11 :       0.4545    0.0909    0.0000
  band No.  band energies     occupation 
      1      -4.3544      2.00000
      2      -1.0345      2.00000
      3       3.7027      2.00000
      4       4.0249      2.00000
      5       7.5956     -0.00000
      6       8.7399      0.00000
      7       9.3333      0.00000
      8      12.8491      0.00000

 k-point    12 :      -0.4545    0.0909    0.0000
  band No.  band energies     occupation 
      1      -4.0834      2.00000
      2      -1.4376      2.00000
      3       3.5238      2.00000
      4       4.1272      2.00000
      5       7.5716     -0.00000
      6       8.7931      0.00000
      7       9.1460      0.00000
      8      13.5510      0.00000

 k-point    13 :      -0.3636    0.0909   -0.0000
  band No.  band energies     occupation 
      1      -4.5687      2.00000
      2      -0.6859      2.00000
      3       3.4868      2.00000
      4       4.3556      2.00000
      5       7.6748     -0.00000
      6       8.9846      0.00000
      7       9.0693      0.00000
      8      13.2500      0.00000

 k-point    14 :      -0.2727    0.0909   -0.0000
  band No.  band energies     occupation 
      1      -5.2498      2.00000
      2       0.6461      2.00000
      3       3.6074      2.00000
      4       4.6810      2.00000
      5       7.8927     -0.00000
      6       9.0071      0.00000
      7       9.2027      0.00000
      8      12.2001      0.00000

 k-point    15 :      -0.1818    0.0909   -0.0000
  band No.  band energies     occupation 
      1      -5.8225      2.00000
      2       2.2010      2.00000
      3       3.9038      2.00000
      4       5.0467      2.00000
      5       8.1893     -0.00000
      6       8.7295      0.00000
      7       9.0885      0.00000
      8      11.3271      0.00000

 k-point    16 :      -0.0909    0.0909    0.0000
  band No.  band energies     occupation 
      1      -6.2103      2.00000
      2       3.6755      2.00000
      3       4.4692      2.00000
      4       5.3225      2.00888
      5       8.3277      0.00000
      6       8.4245      0.00000
      7       8.4994      0.00000
      8      10.4743      0.00000

 k-point    17 :       0.1818    0.1818    0.0000
  band No.  band energies     occupation 
      1      -5.9223      2.00000
      2       3.1629      2.00000
      3       4.1361      2.00000
      4       4.1361      2.00000
      5       7.0599     -0.00000
      6       9.6031      0.00000
      7      10.0594      0.00000
      8      10.0594      0.00000

 k-point    18 :       0.2727    0.1818   -0.0000
  band No.  band energies     occupation 
      1      -5.5348      2.00000
      2       1.9983      2.00000
      3       3.7191      2.00000
      4       3.7919      2.00000
      5       7.1129     -0.00000
      6       9.1743      0.00000
      7      10.3459      0.00000
      8      10.6438      0.00000

 k-point    19 :       0.3636    0.1818   -0.0000
  band No.  band energies     occupation 
      1      -4.9628      2.00000
      2       0.6197      2.00000
      3       3.1866      2.00000
      4       3.5949      2.00000
      5       7.3490     -0.00000
      6       9.5359      0.00000
      7      10.1470      0.00000
      8      10.7169      0.00000

 k-point    20 :       0.4545    0.1818    0.0000
  band No.  band energies     occupation 
      1      -4.2809      2.00000
      2      -0.6232      2.00000
      3       2.7088      2.00000
      4       3.5630      2.00000
      5       7.3881     -0.00000
      6       9.9252      0.00000
      7      10.4567      0.00000
      8      10.7508      0.00000

 k-point    21 :      -0.4545    0.1818    0.0000
  band No.  band energies     occupation 
      1      -3.7961      2.00000
      2      -1.3365      2.00000
      3       2.3717      2.00000
      4       3.6948      2.00000
      5       7.4900     -0.00000
      6       9.7942      0.00000
      7      10.1629      0.00000
      8      12.3840      0.00000

 k-point    22 :      -0.3636    0.1818    0.0000
  band No.  band energies     occupation 
      1      -4.0826      2.00000
      2      -0.9231      2.00000
      3       2.2169      2.00000
      4       3.9742      2.00000
      5       7.7466     -0.00000
      6       9.7812      0.00000
      7       9.9398      0.00000
      8      13.2268      0.00000

 k-point    23 :      -0.2727    0.1818   -0.0000
  band No.  band energies     occupation 
      1      -4.7564      2.00000
      2       0.1987      2.00000
      3       2.2966      2.00000
      4       4.3632      2.00000
      5       8.1210     -0.00000
      6       9.7017      0.00000
      7       9.8284      0.00000
      8      11.8353      0.00000

 k-point    24 :      -0.1818    0.1818   -0.0000
  band No.  band energies     occupation 
      1      -5.3742      2.00000
      2       1.3948      2.00000
      3       2.7791      2.00000
      4       4.7790      2.00000
      5       8.4591      0.00000
      6       9.2146      0.00000
      7       9.5174      0.00000
      8      11.1535      0.00000

 k-point    25 :       0.2727    0.2727    0.0000
  band No.  band energies     occupation 
      1      -5.2132      2.00000
      2       1.5394      2.00000
      3       3.4129      2.00000
      4       3.4129      2.00000
      5       6.4658     -0.00000
      6       8.2637     -0.00000
      7      11.6285      0.00000
      8      11.6285      0.00000

 k-point    26 :       0.3636    0.2727   -0.0000
  band No.  band energies     occupation 
      1      -4.6989      2.00000
      2       0.5814      2.00000
      3       2.8738      2.00000
      4       3.1808      2.00000
      5       6.5982     -0.00000
      6       7.9730     -0.00000
      7      11.9242      0.00000
      8      12.0908      0.00000

 k-point    27 :       0.4545    0.2727   -0.0000
  band No.  band energies     occupation 
      1      -4.0378      2.00000
      2      -0.4522      2.00000
      3       2.1444      2.00000
      4       3.1195      2.00000
      5       6.7956     -0.00000
      6       8.7323      0.00000
      7      11.7690      0.00000
      8      11.9470      0.00000

 k-point    28 :      -0.4545    0.2727    0.0000
  band No.  band energies     occupation 
      1      -3.4211      2.00000
      2      -1.2585      2.00000
      3       1.5697      2.00000
      4       3.2327      2.00000
      5       6.9301     -0.00000
      6      10.2126      0.00000
      7      11.6059      0.00000
      8      11.6160      0.00000

 k-point    29 :      -0.3636    0.2727    0.0000
  band No.  band energies     occupation 
      1      -3.4770      2.00000
      2      -1.1791      2.00000
      3       1.2829      2.00000
      4       3.5083      2.00000
      5       7.2225     -0.00000
      6      11.2676      0.00000
      7      11.2896      0.00000
      8      12.2118      0.00000

 k-point    30 :      -0.2727    0.2727    0.0000
  band No.  band energies     occupation 
      1      -4.1140      2.00000
      2      -0.4165      2.00000
      3       1.4434      2.00000
      4       3.9123      2.00000
      5       7.6723     -0.00000
      6      10.6747      0.00000
      7      11.0174      0.00000
      8      11.9064      0.00000

 k-point    31 :       0.3636    0.3636    0.0000
  band No.  band energies     occupation 
      1      -4.2418      2.00000
      2      -0.0818      2.00000
      3       2.9052      2.00000
      4       2.9052      2.00000
      5       6.1057     -0.00000
      6       7.1217     -0.00000
      7      13.2952      0.00000
      8      13.2952      0.00000

 k-point    32 :       0.4545    0.3636   -0.0000
  band No.  band energies     occupation 
      1      -3.6186      2.00000
      2      -0.8984      2.00000
      3       2.3676      2.00000
      4       2.8000      2.00000
      5       6.3132     -0.00000
      6       7.1396     -0.00000
      7      13.6179      0.00000
      8      13.6320      0.00000

 k-point    33 :      -0.4545    0.3636   -0.0000
  band No.  band energies     occupation 
      1      -2.9420      2.00000
      2      -1.6173      2.00000
      3       1.5849      2.00000
      4       2.8734      2.00000
      5       6.4820     -0.00000
      6       8.3315      0.00000
      7      13.3300      0.00000
      8      13.5024      0.00000

 k-point    34 :      -0.3636    0.3636    0.0000
  band No.  band energies     occupation 
      1      -2.8758      2.00000
      2      -1.6509      2.00000
      3       1.0973      2.00000
      4       3.1186      2.00000
      5       6.7616     -0.00000
      6      10.0572      0.00000
      7      12.6588      0.00000
      8      13.1978      0.00000

 k-point    35 :       0.4545    0.4545    0.0000
  band No.  band energies     occupation 
      1      -3.0339      2.00000
      2      -1.6287      2.00000
      3       2.6458      2.00000
      4       2.6458      2.00000
      5       6.0625     -0.00000
      6       6.3884     -0.00000
      7      14.9994      0.00000
      8      14.9994      0.00000

 k-point    36 :      -0.4545    0.4545   -0.0000
  band No.  band energies     occupation 
      1      -2.3862      2.00000
      2      -2.2746      2.00000
      3       2.2012      2.00000
      4       2.6711      2.00000
      5       6.2434     -0.00000
      6       6.8309     -0.00000
      7      14.9322      0.00000
      8      15.1941      0.00000

 k-point    37 :       0.2727    0.1818    0.0909
  band No.  band energies     occupation 
      1      -5.7841      2.00000
      2       2.4412      2.00000
      3       3.6269      2.00000
      4       4.6430      2.00000
      5       7.8047     -0.00000
      6       9.1044      0.00000
      7       9.8513      0.00000
      8      10.2464      0.00000

 k-point    38 :       0.3636    0.1818    0.0909
  band No.  band energies     occupation 
      1      -5.2704      2.00000
      2       1.1169      2.00000
      3       3.0648      2.00000
      4       4.3223      2.00000
      5       8.1207     -0.00000
      6       9.0445      0.00000
      7      10.1696      0.00000
      8      10.3667      0.00000

 k-point    39 :       0.4545    0.1818    0.0909
  band No.  band energies     occupation 
      1      -4.6105      2.00000
      2      -0.2314      2.00000
      3       2.8093      2.00000
      4       3.9766      2.00000
      5       8.1615     -0.00000
      6       8.8211      0.00000
      7      10.2736      0.00000
      8      11.2107      0.00000

 k-point    40 :      -0.4545    0.1818    0.0909
  band No.  band energies     occupation 
      1      -3.9935      2.00000
      2      -1.2169      2.00000
      3       2.7108      2.00000
      4       3.7647      2.00000
      5       8.1447     -0.00000
      6       8.6057      0.00000
      7      10.2038      0.00000
      8      12.6857      0.00000

 k-point    41 :       0.3636    0.2727    0.0909
  band No.  band energies     occupation 
      1      -5.0849      2.00000
      2       1.1524      2.00000
      3       2.9095      2.00000
      4       3.6311      2.00000
      5       7.2394     -0.00000
      6       8.7692      0.00000
      7      10.4637      0.00000
      8      11.5097      0.00000

 k-point    42 :       0.4545    0.2727    0.0909
  band No.  band energies     occupation 
      1      -4.4659      2.00000
      2       0.0682      2.00000
      3       2.3339      2.00000
      4       3.3156      2.00000
      5       7.5999     -0.00000
      6       9.1821      0.00000
      7      10.1499      0.00000
      8      11.8992      0.00000

 k-point    43 :      -0.4545    0.2727    0.0909
  band No.  band energies     occupation 
      1      -3.7906      2.00000
      2      -0.9463      2.00000
      3       1.9488      2.00000
      4       3.1592      2.00000
      5       7.7326     -0.00000
      6       9.7394      0.00000
      7      10.5675      0.00000
      8      11.8545      0.00000

 k-point    44 :      -0.3636    0.2727    0.0909
  band No.  band energies     occupation 
      1      -3.5223      2.00000
      2      -1.2979      2.00000
      3       1.7180      2.00000
      4       3.2494      2.00000
      5       7.9477     -0.00000
      6       9.4764      0.00000
      7      11.7385      0.00000
      8      12.2478      0.00000

 k-point    45 :      -0.2727    0.2727    0.0909
  band No.  band energies     occupation 
      1      -4.0310      2.00000
      2      -0.6046      2.00000
      3       1.7056      2.00000
      4       3.5464      2.00000
      5       8.3137      0.00000
      6       9.2845      0.00000
      7      11.0270      0.00000
      8      11.6598      0.00000

 k-point    46 :      -0.1818    0.2727    0.0909
  band No.  band energies     occupation 
      1      -4.7085      2.00000
      2       0.3811      2.00000
      3       2.0827      2.00000
      4       3.9632      2.00000
      5       8.7607      0.00000
      6       8.8685      0.00000
      7      10.1259      0.00000
      8      11.2125      0.00000

 k-point    47 :       0.4545    0.3636    0.0909
  band No.  band energies     occupation 
      1      -4.1321      2.00000
      2      -0.2192      2.00000
      3       2.4327      2.00000
      4       2.8253      2.00000
      5       6.8789     -0.00000
      6       7.7277     -0.00000
      7      11.8466      0.00000
      8      13.2599      0.00000

 k-point    48 :      -0.4545    0.3636    0.0909
  band No.  band energies     occupation 
      1      -3.4495      2.00000
      2      -1.0441      2.00000
      3       1.7865      2.00000
      4       2.6463      2.00000
      5       7.2226     -0.00000
      6       8.5497      0.00000
      7      11.4919      0.00000
      8      13.6277      0.00000

 k-point    49 :      -0.3636    0.3636    0.0909
  band No.  band energies     occupation 
      1      -2.9776      2.00000
      2      -1.5458      2.00000
      3       1.2623      2.00000
      4       2.7633      2.00000
      5       7.4382     -0.00000
      6      10.1211      0.00000
      7      11.1927      0.00000
      8      12.7976      0.00000

 k-point    50 :      -0.2727    0.3636    0.0909
  band No.  band energies     occupation 
      1      -3.3654      2.00000
      2      -1.1442      2.00000
      3       1.1575      2.00000
      4       3.0879      2.00000
      5       7.8127     -0.00000
      6      10.5468      0.00000
      7      11.2915      0.00000
      8      12.1803      0.00000

 k-point    51 :      -0.4545    0.4545    0.0909
  band No.  band energies     occupation 
      1      -2.9598      2.00000
      2      -1.6255      2.00000
      3       2.2405      2.00000
      4       2.3622      2.00000
      5       6.8068     -0.00000
      6       7.0759     -0.00000
      7      13.3817      0.00000
      8      14.8277      0.00000

 k-point    52 :      -0.3636    0.4545    0.0909
  band No.  band energies     occupation 
      1      -2.4519      2.00000
      2      -2.0741      2.00000
      3       1.5757      2.00000
      4       2.4351      2.00000
      5       7.0884     -0.00000
      6       8.3431      0.00000
      7      12.9252      0.00000
      8      13.1572      0.00000

 k-point    53 :      -0.4545    0.3636    0.1818
  band No.  band energies     occupation 
      1      -3.8203      2.00000
      2      -0.6151      2.00000
      3       1.6720      2.00000
      4       2.8476      2.00000
      5       8.5439      0.00000
      6       9.1749      0.00000
      7       9.7815      0.00000
      8      13.1526      0.00000

 k-point    54 :      -0.3636    0.3636    0.1818
  band No.  band energies     occupation 
      1      -3.1829      2.00000
      2      -1.3186      2.00000
      3       1.3906      2.00000
      4       2.5257      2.00000
      5       8.9081      0.00000
      6       9.2821      0.00000
      7      10.5571      0.00000
      8      12.4313      0.00000

 k-point    55 :      -0.3636    0.4545    0.1818
  band No.  band energies     occupation 
      1      -2.7723      2.00000
      2      -1.6683      2.00000
      3       1.6213      2.00000
      4       2.0044      2.00000
      5       8.4582      0.00000
      6       8.6637      0.00000
      7      11.0803      0.00000
      8      12.6725      0.00000

 k-point    56 :      -0.2727    0.4545    0.1818
  band No.  band energies     occupation 
      1      -2.5710      2.00000
      2      -1.8339      2.00000
      3       1.3395      2.00000
      4       2.0414      2.00000
      5       8.8064      0.00000
      6      10.0827      0.00000
      7      10.8531      0.00000
      8      10.8639      0.00000


--------------------------------------------------------------------------------------------------------


 soft charge-density along one line, spin component           1
         0         1         2         3         4         5         6         7         8         9
 total charge-density along one line
 
 pseudopotential strength for first ion, spin component:           1
 17.060 -18.265  -0.000  -0.000  -0.000   0.000   0.000   0.000
-18.265  50.850   0.000   0.000   0.000  -0.000  -0.000  -0.000
 -0.000   0.000   3.851  -0.000  -0.000 -11.260   0.000   0.000
 -0.000   0.000  -0.000   3.851  -0.000   0.000 -11.260   0.000
 -0.000   0.000  -0.000  -0.000   3.851   0.000   0.000 -11.260
  0.000  -0.000 -11.260   0.000   0.000  35.875  -0.000  -0.000
  0.000  -0.000   0.000 -11.260   0.000  -0.000  35.875  -0.000
  0.000  -0.000   0.000   0.000 -11.260  -0.000  -0.000  35.875
 -0.000  -0.000  -0.000   0.002  -0.000   0.000  -0.004   0.000
 -0.000  -0.000  -0.000  -0.000   0.002   0.000   0.000  -0.004
  0.000   0.000  -0.000   0.000  -0.000   0.000  -0.000   0.000
 -0.000  -0.000   0.002  -0.000  -0.000  -0.004   0.000   0.000
 -0.000  -0.000  -0.000   0.000   0.000   0.000  -0.000  -0.000
  0.000  -0.000   0.000  -0.007   0.000  -0.000   0.019  -0.000
  0.000  -0.000   0.000   0.000  -0.007  -0.000  -0.000   0.019
 -0.000   0.000   0.000  -0.000   0.000  -0.000   0.000  -0.000
  0.000  -0.000  -0.007   0.000   0.000   0.019  -0.000  -0.000
  0.000  -0.000   0.000  -0.000  -0.000  -0.000   0.000   0.000
 total augmentation occupancy for first ion, spin component:           1
  1.564   0.017   0.000   0.000   0.000   0.000  -0.000   0.000  -0.000   0.000   0.000   0.000   0.000  -0.000   0.000   0.000
  0.017   0.000  -0.000   0.000  -0.000  -0.000  -0.000  -0.000  -0.000   0.000   0.000   0.000   0.000  -0.000   0.000   0.000
  0.000  -0.000   1.181   0.000  -0.000   0.026  -0.000  -0.000   0.000  -0.000  -0.000   0.133   0.000   0.000   0.000   0.000
  0.000   0.000   0.000   1.181   0.000  -0.000   0.026   0.000   0.133   0.000   0.000  -0.000  -0.000   0.000   0.000   0.000
  0.000  -0.000  -0.000   0.000   1.181  -0.000   0.000   0.026   0.000   0.133  -0.000  -0.000  -0.000   0.000   0.000  -0.000
  0.000  -0.000   0.026   0.000  -0.000   0.001  -0.000  -0.000   0.000  -0.000  -0.000   0.003   0.000   0.000  -0.000   0.000
  0.000  -0.000   0.000   0.026   0.000  -0.000   0.001   0.000   0.003   0.000   0.000  -0.000  -0.000   0.000   0.000   0.000
  0.000  -0.000  -0.000   0.000   0.026  -0.000   0.000   0.001   0.000   0.003  -0.000  -0.000  -0.000   0.000   0.000  -0.000
 -0.000  -0.000   0.000   0.133   0.000   0.000   0.003   0.000   0.026   0.000   0.000   0.000  -0.000   0.000   0.000   0.000
  0.000   0.000  -0.000   0.000   0.133  -0.000   0.000   0.003   0.000   0.026  -0.000  -0.000  -0.000   0.000   0.000  -0.000
  0.000   0.000  -0.000   0.000  -0.000  -0.000   0.000  -0.000   0.000  -0.000   0.008   0.000   0.000   0.000  -0.000   0.000
  0.000   0.000   0.133  -0.000  -0.000   0.003  -0.000  -0.000   0.000  -0.000   0.000   0.026   0.000   0.000  -0.000   0.000
  0.000   0.000   0.000  -0.000  -0.000   0.000  -0.000  -0.000  -0.000  -0.000   0.000   0.000   0.008  -0.000   0.000   0.000
 -0.000  -0.000   0.000   0.000   0.000   0.000   0.000   0.000   0.000   0.000   0.000   0.000  -0.000   0.000   0.000   0.000
  0.000   0.000   0.000   0.000   0.000  -0.000   0.000   0.000   0.000   0.000  -0.000  -0.000   0.000   0.000   0.000  -0.000
  0.000   0.000   0.000   0.000  -0.000   0.000   0.000  -0.000   0.000  -0.000   0.000   0.000   0.000   0.000  -0.000   0.000
  0.000   0.000   0.000  -0.000  -0.000   0.000  -0.000  -0.000   0.000  -0.000   0.000   0.000   0.000   0.000  -0.000   0.000
[...]
      6       9.9834      0.00000
      7      11.2855      0.00000
      8      11.3589      0.00000

 k-point    29 :      -0.3636    0.2727    0.0000
  band No.  band energies     occupation 
      1      -3.6029      2.00000
      2      -1.3270      2.00000
      3       1.1645      2.00000
      4       3.3378      2.00000
      5       7.0276     -0.00000
      6      11.0095      0.00000
      7      11.0279      0.00000
      8      11.9085      0.00000

 k-point    30 :      -0.2727    0.2727    0.0000
  band No.  band energies     occupation 
      1      -4.2239      2.00000
      2      -0.5814      2.00000
      3       1.3241      2.00000
      4       3.7330      2.00000
      5       7.4609     -0.00000
      6      10.4144      0.00000
      7      10.7570      0.00000
      8      11.5742      0.00000

 k-point    31 :       0.3636    0.3636    0.0000
  band No.  band energies     occupation 
      1      -4.3452      2.00000
      2      -0.2634      2.00000
      3       2.7483      2.00000
      4       2.7483      2.00000
      5       5.9309     -0.00000
      6       6.9477     -0.00000
      7      12.9819      0.00000
      8      12.9819      0.00000

 k-point    32 :       0.4545    0.3636   -0.0000
  band No.  band energies     occupation 
      1      -3.7345      2.00000
      2      -1.0658      2.00000
      3       2.2260      2.00000
      4       2.6446      2.00000
      5       6.1385     -0.00000
      6       6.9580     -0.00000
      7      13.3000      0.00000
      8      13.3119      0.00000

 k-point    33 :      -0.4545    0.3636   -0.0000
  band No.  band energies     occupation 
      1      -3.0741      2.00000
      2      -1.7709      2.00000
      3       1.4654      2.00000
      4       2.7163      2.00000
      5       6.3079     -0.00000
      6       8.1235      0.00000
      7      13.0340      0.00000
      8      13.1653      0.00000

 k-point    34 :      -0.3636    0.3636    0.0000
  band No.  band energies     occupation 
      1      -3.0144      2.00000
      2      -1.7998      2.00000
      3       0.9909      2.00000
      4       2.9563      2.00000
      5       6.5804     -0.00000
      6       9.8260      0.00000
      7      12.3618      0.00000
      8      12.8884      0.00000

 k-point    35 :       0.4545    0.4545    0.0000
  band No.  band energies     occupation 
      1      -3.1603      2.00000
      2      -1.7820      2.00000
      3       2.4932      2.00000
      4       2.4933      2.00000
      5       5.8943     -0.00000
      6       6.2214     -0.00000
      7      14.6469      0.00000
      8      14.6469      0.00000

 k-point    36 :      -0.4545    0.4545   -0.0000
  band No.  band energies     occupation 
      1      -2.5271      2.00000
      2      -2.4152      2.00000
      3       2.0631      2.00000
      4       2.5179      2.00000
      5       6.0751     -0.00000
      6       6.6490     -0.00000
      7      14.5734      0.00000
      8      14.8023      0.00000

 k-point    37 :       0.2727    0.1818    0.0909
  band No.  band energies     occupation 
      1      -5.8587      2.00000
      2       2.2386      2.00000
      3       3.4605      2.00000
      4       4.4457      2.00000
      5       7.5905     -0.00000
      6       8.8066      0.00000
      7       9.5964      0.00000
      8      10.0170      0.00000

 k-point    38 :       0.3636    0.1818    0.0909
  band No.  band energies     occupation 
      1      -5.3551      2.00000
      2       0.9391      2.00000
      3       2.9033      2.00000
      4       4.1327      2.00000
      5       7.8937     -0.00000
      6       8.7715      0.00000
      7       9.9257      0.00000
      8      10.1338      0.00000

 k-point    39 :       0.4545    0.1818    0.0909
  band No.  band energies     occupation 
      1      -4.7098      2.00000
      2      -0.3804      2.00000
      3       2.6458      2.00000
      4       3.7960      2.00000
      5       7.9160     -0.00000
      6       8.5955      0.00000
      7      10.0198      0.00000
      8      10.9643      0.00000

 k-point    40 :      -0.4545    0.1818    0.0909
  band No.  band energies     occupation 
      1      -4.1099      2.00000
      2      -1.3415      2.00000
      3       2.5452      2.00000
      4       3.5901      2.00000
      5       7.8833     -0.00000
      6       8.4076      0.00000
      7       9.9564      0.00000
      8      12.4097      0.00000

 k-point    41 :       0.3636    0.2727    0.0909
  band No.  band energies     occupation 
      1      -5.1728      2.00000
      2       0.9574      2.00000
      3       2.7567      2.00000
      4       3.4588      2.00000
      5       7.0378     -0.00000
      6       8.5566      0.00000
      7      10.1914      0.00000
      8      11.2271      0.00000

 k-point    42 :       0.4545    0.2727    0.0909
  band No.  band energies     occupation 
      1      -4.5667      2.00000
      2      -0.1053      2.00000
      3       2.1890      2.00000
      4       3.1526      2.00000
      5       7.3957     -0.00000
      6       8.9660      0.00000
      7       9.8794      0.00000
      8      11.6144      0.00000

 k-point    43 :      -0.4545    0.2727    0.0909
  band No.  band energies     occupation 
      1      -3.9081      2.00000
      2      -1.0942      2.00000
      3       1.8073      2.00000
      4       3.0008      2.00000
      5       7.5277     -0.00000
      6       9.4997      0.00000
      7      10.3079      0.00000
      8      11.5707      0.00000

 k-point    44 :      -0.3636    0.2727    0.0909
  band No.  band energies     occupation 
      1      -3.6486      2.00000
      2      -1.4347      2.00000
      3       1.5815      2.00000
      4       3.0884      2.00000
      5       7.7362     -0.00000
      6       9.2376      0.00000
      7      11.4580      0.00000
      8      11.9758      0.00000

 k-point    45 :      -0.2727    0.2727    0.0909
  band No.  band energies     occupation 
      1      -4.1428      2.00000
      2      -0.7611      2.00000
      3       1.5743      2.00000
      4       3.3778      2.00000
      5       8.0890      0.00000
      6       9.0513      0.00000
      7      10.7600      0.00000
      8      11.3931      0.00000

 k-point    46 :      -0.1818    0.2727    0.0909
  band No.  band energies     occupation 
      1      -4.8048      2.00000
      2       0.2036      2.00000
      3       1.9485      2.00000
      4       3.7838      2.00000
      5       8.5133      0.00000
      6       8.6383      0.00000
      7       9.8904      0.00000
      8      10.9391      0.00000

 k-point    47 :       0.4545    0.3636    0.0909
  band No.  band energies     occupation 
      1      -4.2384      2.00000
      2      -0.3982      2.00000
      3       2.2891      2.00000
      4       2.6742      2.00000
      5       6.6874     -0.00000
      6       7.5394     -0.00000
      7      11.5547      0.00000
      8      12.9481      0.00000

 k-point    48 :      -0.4545    0.3636    0.0909
  band No.  band energies     occupation 
      1      -3.5710      2.00000
      2      -1.2081      2.00000
      3       1.6598      2.00000
      4       2.4996      2.00000
      5       7.0308     -0.00000
      6       8.3403      0.00000
      7      11.2085      0.00000
      8      13.3055      0.00000

 k-point    49 :      -0.3636    0.3636    0.0909
  band No.  band energies     occupation 
      1      -3.1134      2.00000
      2      -1.6963      2.00000
      3       1.1496      2.00000
      4       2.6134      2.00000
      5       7.2426     -0.00000
      6       9.8945      0.00000
      7      10.9104      0.00000
      8      12.4942      0.00000

 k-point    50 :      -0.2727    0.3636    0.0909
  band No.  band energies     occupation 
      1      -3.4924      2.00000
      2      -1.3018      2.00000
      3       1.0474      2.00000
      4       2.9304      2.00000
      5       7.6072     -0.00000
      6      10.3010      0.00000
      7      11.0218      0.00000
      8      11.9079      0.00000

 k-point    51 :      -0.4545    0.4545    0.0909
  band No.  band energies     occupation 
      1      -3.0891      2.00000
      2      -1.7804      2.00000
      3       2.1012      2.00000
      4       2.2212      2.00000
      5       6.6220     -0.00000
      6       6.8930     -0.00000
      7      13.0704      0.00000
      8      14.4575      0.00000

 k-point    52 :      -0.3636    0.4545    0.0909
  band No.  band energies     occupation 
      1      -2.5958      2.00000
      2      -2.2192      2.00000
      3       1.4572      2.00000
      4       2.2921      2.00000
      5       6.9010     -0.00000
      6       8.1344      0.00000
      7      12.6237      0.00000
      8      12.8519      0.00000

 k-point    53 :      -0.4545    0.3636    0.1818
  band No.  band energies     occupation 
      1      -3.9350      2.00000
      2      -0.7849      2.00000
      3       1.5476      2.00000
      4       2.6984      2.00000
      5       8.3233      0.00000
      6       8.9749      0.00000
      7       9.5076      0.00000
      8      12.8484      0.00000

 k-point    54 :      -0.3636    0.3636    0.1818
  band No.  band energies     occupation 
      1      -3.3135      2.00000
      2      -1.4736      2.00000
      3       1.2720      2.00000
      4       2.3852      2.00000
      5       8.6981      0.00000
      6       9.0420      0.00000
      7      10.2990      0.00000
      8      12.1437      0.00000

 k-point    55 :      -0.3636    0.4545    0.1818
  band No.  band energies     occupation 
      1      -2.9087      2.00000
      2      -1.8250      2.00000
      3       1.5005      2.00000
      4       1.8769      2.00000
      5       8.2445      0.00000
      6       8.4542      0.00000
      7      10.8051      0.00000
      8      12.3784      0.00000

 k-point    56 :      -0.2727    0.4545    0.1818
  band No.  band energies     occupation 
      1      -2.7141      2.00000
      2      -1.9865      2.00000
      3       1.2278      2.00000
      4       1.9125      2.00000
      5       8.5920      0.00000
      6       9.8685      0.00000
      7      10.5741      0.00000
      8      10.5842      0.00000


--------------------------------------------------------------------------------------------------------


 soft charge-density along one line, spin component           1
         0         1         2         3         4         5         6         7         8         9
 total charge-density along one line
 
 pseudopotential strength for first ion, spin component:           1
 17.083 -18.272  -0.000  -0.000  -0.000   0.000   0.000   0.000
-18.272  50.809   0.000   0.000   0.000  -0.000  -0.000  -0.000
 -0.000   0.000   3.853  -0.000  -0.000 -11.270   0.000   0.000
 -0.000   0.000  -0.000   3.853  -0.000   0.000 -11.270   0.000
 -0.000   0.000  -0.000  -0.000   3.853   0.000   0.000 -11.270
  0.000  -0.000 -11.270   0.000   0.000  35.912  -0.000  -0.000
  0.000  -0.000   0.000 -11.270   0.000  -0.000  35.912  -0.000
  0.000  -0.000   0.000   0.000 -11.270  -0.000  -0.000  35.912
 -0.000  -0.000  -0.000   0.002  -0.000   0.000  -0.004   0.000
 -0.000  -0.000  -0.000  -0.000   0.002   0.000   0.000  -0.004
  0.000   0.000  -0.000   0.000  -0.000   0.000  -0.000   0.000
 -0.000  -0.000   0.002  -0.000  -0.000  -0.004   0.000   0.000
 -0.000  -0.000  -0.000   0.000   0.000   0.000  -0.000  -0.000
  0.000  -0.000   0.000  -0.007   0.000  -0.000   0.018  -0.000
  0.000  -0.000   0.000   0.000  -0.007  -0.000  -0.000   0.018
 -0.000   0.000   0.000  -0.000   0.000  -0.000   0.000  -0.000
  0.000  -0.000  -0.007   0.000   0.000   0.018  -0.000  -0.000
  0.000  -0.000   0.000  -0.000  -0.000  -0.000   0.000   0.000
 total augmentation occupancy for first ion, spin component:           1
  1.565   0.016  -0.000  -0.000  -0.000  -0.000  -0.000  -0.000   0.000  -0.000  -0.000  -0.000  -0.000   0.000  -0.000  -0.000
  0.016   0.000   0.000  -0.000   0.000   0.000   0.000   0.000   0.000  -0.000  -0.000   0.000  -0.000   0.000   0.000  -0.000
 -0.000   0.000   1.161  -0.000   0.000   0.025  -0.000   0.000  -0.000   0.000   0.000   0.130  -0.000  -0.000  -0.000  -0.000
 -0.000  -0.000  -0.000   1.161  -0.000  -0.000   0.025  -0.000   0.130  -0.000  -0.000   0.000   0.000   0.000  -0.000  -0.000
 -0.000   0.000   0.000  -0.000   1.161   0.000  -0.000   0.025  -0.000   0.130   0.000   0.000   0.000  -0.000   0.000   0.000
 -0.000   0.000   0.025  -0.000   0.000   0.001  -0.000   0.000  -0.000   0.000   0.000   0.003  -0.000  -0.000   0.000  -0.000
 -0.000   0.000  -0.000   0.025  -0.000  -0.000   0.001  -0.000   0.003  -0.000  -0.000   0.000   0.000   0.000  -0.000  -0.000
 -0.000   0.000   0.000  -0.000   0.025   0.000  -0.000   0.001  -0.000   0.003   0.000   0.000   0.000  -0.000   0.000   0.000
  0.000  -0.000  -0.000   0.130  -0.000  -0.000   0.003  -0.000   0.025  -0.000  -0.000  -0.000   0.000   0.000  -0.000  -0.000
 -0.000  -0.000   0.000  -0.000   0.130   0.000  -0.000   0.003  -0.000   0.025   0.000   0.000   0.000  -0.000   0.000   0.000
 -0.000  -0.000   0.000  -0.000   0.000   0.000  -0.000   0.000  -0.000   0.000   0.007  -0.000   0.000  -0.000   0.000   0.000
 -0.000   0.000   0.130   0.000   0.000   0.003   0.000   0.000  -0.000   0.000   0.000   0.025  -0.000  -0.000   0.000  -0.000
  0.000  -0.000  -0.000   0.000   0.000  -0.000   0.000   0.000   0.000   0.000   0.000  -0.000   0.007   0.000   0.000  -0.000
  0.000   0.000  -0.000   0.000  -0.000  -0.000   0.000  -0.000   0.000  -0.000  -0.000  -0.000   0.000   0.000  -0.000  -0.000
 -0.000  -0.000  -0.000  -0.000   0.000   0.000  -0.000   0.000  -0.000   0.000   0.000   0.000  -0.000  -0.000   0.000   0.000
 -0.000  -0.000  -0.000  -0.000   0.000  -0.000  -0.000   0.000  -0.000   0.000   0.000  -0.000  -0.000  -0.000   0.000   0.000
 -0.000  -0.000   0.000  -0.000   0.000   0.000   0.000   0.000  -0.000  -0.000  -0.000   0.000  -0.000  -0.000   0.000  -0.000
 -0.000  -0.000  -0.000   0.000  -0.000  -0.000   0.000   0.000   0.000  -0.000  -0.000  -0.000   0.000   0.000   0.000   0.000


------------------------ aborting loop because EDIFF is reached ----------------------------------------


    CHARGE:  cpu time      0.0572: real time      0.0572
    FORLOC:  cpu time      0.0029: real time      0.0029
    FORNL :  cpu time      0.3917: real time      0.3952
    STRESS:  cpu time      1.1816: real time      1.1820
    FORCOR:  cpu time      0.0500: real time      0.0500
    FORHAR:  cpu time      0.0131: real time      0.0131
    MIXING:  cpu time      0.0020: real time      0.0020
    OFIELD:  cpu time      0.0001: real time      0.0048

  FORCE on cell =-STRESS in cart. coord.  units (eV):
  Direction    XX          YY          ZZ          XY          YZ          ZX
  --------------------------------------------------------------------------------------
  Alpha Z     5.95859     5.95859     5.95859
  Ewald     -75.64082   -75.64082   -75.64082    -0.00000     0.00000    -0.00000
  Hartree     5.06225     5.06225     5.06225     0.00000     0.00000     0.00000
  E(xc)     -25.03593   -25.03593   -25.03593     0.00000     0.00000     0.00000
  Local     -26.72632   -26.72632   -26.72632     0.00000     0.00000     0.00000
  n-local    73.35241    68.06087    72.06403    -1.18137     0.49690     2.00863
  augment   -11.04500   -11.04500   -11.04500     0.00000     0.00000     0.00000
  Kinetic    55.85790    54.53854    58.43971    -0.65904     1.01873     3.55193
  Fock        0.00000     0.00000     0.00000     0.00000     0.00000     0.00000
  -------------------------------------------------------------------------------------
  Total       0.01058     0.01058     0.01058    -0.00000     0.00000    -0.00000
  in kB       0.41445     0.41445     0.41445    -0.00000     0.00000    -0.00000
  external pressure =        0.41 kB  Pullay stress =        0.00 kB


 VOLUME and BASIS-vectors are now :
 -----------------------------------------------------------------------------
  energy-cutoff  :      520.00
  volume of cell :       40.90
      direct lattice vectors                 reciprocal lattice vectors
     2.734635474  2.734635474  0.000000000     0.182839726  0.182839726 -0.182839726
     0.000000000  2.734635474  2.734635474    -0.182839726  0.182839726  0.182839726
     2.734635474  0.000000000  2.734635474     0.182839726 -0.182839726  0.182839726

  length of vectors
     3.867358576  3.867358576  3.867358576     0.316687695  0.316687695  0.316687695


 FORCES acting on ions
    electron-ion (+dipol)            ewald-force                    non-local-force                 convergence-correction
 -----------------------------------------------------------------------------------------------
   0.342E-07 0.328E-07 0.342E-07   -.109E-14 0.501E-14 0.428E-15   0.812E-16 0.149E-16 0.257E-16   -.393E-09 -.393E-09 -.393E-09
   -.342E-07 -.328E-07 -.342E-07   0.145E-14 -.474E-14 -.628E-15   -.870E-16 -.193E-16 -.385E-16   0.393E-09 0.393E-09 0.393E-09
 -----------------------------------------------------------------------------------------------
   -.470E-13 -.125E-13 -.432E-14   0.364E-15 0.273E-15 -.199E-15   -.583E-17 -.432E-17 -.128E-16   -.518E-15 0.110E-14 -.187E-14
 
 
 POSITION                                       TOTAL-FORCE (eV/Angst)
 -----------------------------------------------------------------------------------
      0.00000      0.00000      0.00000        -0.000000      0.000000     -0.000000
      1.36732      1.36732      1.36732         0.000000     -0.000000      0.000000
 -----------------------------------------------------------------------------------
    total drift:                               -0.000000     -0.000000     -0.000000


--------------------------------------------------------------------------------------------------------



  FREE ENERGIE OF THE ION-ELECTRON SYSTEM (eV)
  ---------------------------------------------------
  free  energy   TOTEN  =       -10.84647266 eV

  energy  without entropy=      -10.84650810  energy(sigma->0) =      -10.84648447
 
 d Force = 0.0000000E+00[ 0.000E+00, 0.000E+00]  d Energy = 0.2373191E-02-0.237E-02
 d Force = 0.0000000E+00[ 0.000E+00, 0.000E+00]  d Ewald  = 0.1111265E+01-0.111E+01


--------------------------------------------------------------------------------------------------------


    POTLOK:  cpu time      0.0550: real time      0.0874


--------------------------------------------------------------------------------------------------------




--------------------------------------------------------------------------------------------------------


  
 reached required accuracy - stopping structural energy minimisation
 writing wavefunctions
     LOOP+:  cpu time      7.0600: real time      7.3944
    4ORBIT:  cpu time      0.0000: real time      0.0000

 total amount of memory used by VASP MPI-rank0    59123. kBytes
=======================================================================

   base      :      30000. kBytes
   nonlr-proj:       1719. kBytes
   fftplans  :       7596. kBytes
   grid      :      11692. kBytes
   one-center:         31. kBytes
   wavefun   :       8085. kBytes
 
  
  
 General timing and accounting informations for this job:
 ========================================================
  
                  Total CPU time used (sec):       29.245
                            User time (sec):       28.979
                          System time (sec):        0.267
                         Elapsed time (sec):       37.075
  
                   Maximum memory used (kb):      285240.
                   Average memory used (kb):          N/A
  
                          Minor page faults:        30657
                          Major page faults:            2
                 Voluntary context switches:         1877
