<?xml version="1.0" encoding="ISO-8859-1"?>
<modeling>
 <generator>
  <i name="program" type="string">vasp </i>
  <i name="version" type="string">6.3.2  </i>
  <i name="subversion" type="string">27Jun22 (build Dec 02 2024 22:47:12) complex                          parallel </i>
  <i name="platform" type="string">LinuxIFC </i>
  <i name="date" type="string">2024 12 19 </i>
  <i name="time" type="string">21:20:51 </i>
 </generator>
 <incar>
  <i type="string" name="SYSTEM">Silicon</i>
  <i type="string" name="PREC">Accurate</i>
  <i type="string" name="ALGO">Normal</i>
  <i type="int" name="IBRION">     2</i>
  <i name="EDIFF">      0.00000100</i>
  <i name="EDIFFG">     -0.02000000</i>
  <i type="int" name="NSW">    50</i>
  <i type="int" name="ISIF">     3</i>
  <i name="ENCUT">    520.00000000</i>
  <i type="string" name="LREAL">Auto</i>
  <i type="int" name="ISMEAR">     1</i>
  <i name="SIGMA">      0.10000000</i>
  <i name="KSPACING">      0.20000000</i>
 </incar>
 <primitive_cell>
  <structure name="primitive_cell" >
   <crystal>
    <varray name="basis" >
     <v>       2.71500000       2.71500000       0.00000000 </v>
     <v>       0.00000000       2.71500000       2.71500000 </v>
     <v>       2.71500000       0.00000000       2.71500000 </v>
    </varray>
    <i name="volume">     40.02575175 </i>
    <varray name="rec_basis" >
     <v>       0.18416206       0.18416206      -0.18416206 </v>
     <v>      -0.18416206       0.18416206       0.18416206 </v>
     <v>       0.18416206      -0.18416206       0.18416206 </v>
    </varray>
   </crystal>
   <varray name="positions" >
    <v>       0.00000000       0.00000000       0.00000000 </v>
    <v>       0.25000000       0.25000000       0.25000000 </v>
   </varray>
  </structure>
  <varray name="primitive_index" >
   <v type="int" >        1 </v>
   <v type="int" >        2 </v>
  </varray>
 </primitive_cell>
 <kpoints>
  <generation param="Gamma">
   <v type="int" name="divisions">      11       11       11 </v>
   <v name="usershift">      0.00000000       0.00000000       0.00000000 </v>
   <v name="genvec1">      0.09090909      -0.00000000      -0.00000000 </v>
   <v name="genvec2">     -0.00000000       0.09090909       0.00000000 </v>
   <v name="genvec3">      0.00000000       0.00000000       0.09090909 </v>
   <v name="shift">      0.00000000       0.00000000       0.00000000 </v>
  </generation>
  <varray name="kpointlist" >
   <v>       0.00000000       0.00000000       0.00000000 </v>
   <v>       0.09090909       0.00000000      -0.00000000 </v>
   <v>       0.18181818      -0.00000000      -0.00000000 </v>
   <v>       0.27272727      -0.00000000       0.00000000 </v>
   <v>       0.36363636      -0.00000000       0.00000000 </v>
   <v>       0.45454545       0.00000000       0.00000000 </v>
   <v>       0.09090909       0.09090909       0.00000000 </v>
   <v>       0.18181818       0.09090909      -0.00000000 </v>
   <v>       0.27272727       0.09090909      -0.00000000 </v>
   <v>       0.36363636       0.09090909       0.00000000 </v>
   <v>       0.45454545       0.09090909       0.00000000 </v>
   <v>      -0.45454545       0.09090909       0.00000000 </v>
   <v>      -0.36363636       0.09090909      -0.00000000 </v>
   <v>      -0.27272727       0.09090909      -0.00000000 </v>
   <v>      -0.18181818       0.09090909      -0.00000000 </v>
   <v>      -0.09090909       0.09090909       0.00000000 </v>
   <v>       0.18181818       0.18181818       0.00000000 </v>
   <v>       0.27272727       0.18181818      -0.00000000 </v>
   <v>       0.36363636       0.18181818      -0.00000000 </v>
   <v>       0.45454545       0.18181818       0.00000000 </v>
   <v>      -0.45454545       0.18181818       0.00000000 </v>
   <v>      -0.36363636       0.18181818       0.00000000 </v>
   <v>      -0.27272727       0.18181818      -0.00000000 </v>
   <v>      -0.18181818       0.18181818      -0.00000000 </v>
   <v>       0.27272727       0.27272727       0.00000000 </v>
   <v>       0.36363636       0.27272727      -0.00000000 </v>
   <v>       0.45454545       0.27272727      -0.00000000 </v>
   <v>      -0.45454545       0.27272727       0.00000000 </v>
   <v>      -0.36363636       0.27272727       0.00000000 </v>
   <v>      -0.27272727       0.27272727       0.00000000 </v>
   <v>       0.36363636       0.36363636       0.00000000 </v>
   <v>       0.45454545       0.36363636      -0.00000000 </v>
   <v>      -0.45454545       0.36363636      -0.00000000 </v>
   <v>      -0.36363636       0.36363636       0.00000000 </v>
   <v>       0.45454545       0.45454545       0.00000000 </v>
   <v>      -0.45454545       0.45454545      -0.00000000 </v>
   <v>       0.27272727       0.18181818       0.09090909 </v>
   <v>       0.36363636       0.18181818       0.09090909 </v>
   <v>       0.45454545       0.18181818       0.09090909 </v>
   <v>      -0.45454545       0.18181818       0.09090909 </v>
   <v>       0.36363636       0.27272727       0.09090909 </v>
   <v>       0.45454545       0.27272727       0.09090909 </v>
   <v>      -0.45454545       0.27272727       0.09090909 </v>
   <v>      -0.36363636       0.27272727       0.09090909 </v>
   <v>      -0.27272727       0.27272727       0.09090909 </v>
   <v>      -0.18181818       0.27272727       0.09090909 </v>
   <v>       0.45454545       0.36363636       0.09090909 </v>
   <v>      -0.45454545       0.36363636       0.09090909 </v>
   <v>      -0.36363636       0.36363636       0.09090909 </v>
   <v>      -0.27272727       0.36363636       0.09090909 </v>
   <v>      -0.45454545       0.45454545       0.09090909 </v>
   <v>      -0.36363636       0.45454545       0.09090909 </v>
   <v>      -0.45454545       0.36363636       0.18181818 </v>
   <v>      -0.36363636       0.36363636       0.18181818 </v>
   <v>      -0.36363636       0.45454545       0.18181818 </v>
   <v>      -0.27272727       0.45454545       0.18181818 </v>
  </varray>
  <varray name="weights" >
   <v>       0.00075131 </v>
   <v>       0.00601052 </v>
   <v>       0.00601052 </v>
   <v>       0.00601052 </v>
   <v>       0.00601052 </v>
   <v>       0.00601052 </v>
   <v>       0.00450789 </v>
   <v>       0.01803156 </v>
   <v>       0.01803156 </v>
   <v>       0.01803156 </v>
   <v>       0.01803156 </v>
   <v>       0.01803156 </v>
   <v>       0.01803156 </v>
   <v>       0.01803156 </v>
   <v>       0.01803156 </v>
   <v>       0.00901578 </v>
   <v>       0.00450789 </v>
   <v>       0.01803156 </v>
   <v>       0.01803156 </v>
   <v>       0.01803156 </v>
   <v>       0.01803156 </v>
   <v>       0.01803156 </v>
   <v>       0.01803156 </v>
   <v>       0.00901578 </v>
   <v>       0.00450789 </v>
   <v>       0.01803156 </v>
   <v>       0.01803156 </v>
   <v>       0.01803156 </v>
   <v>       0.01803156 </v>
   <v>       0.00901578 </v>
   <v>       0.00450789 </v>
   <v>       0.01803156 </v>
   <v>       0.01803156 </v>
   <v>       0.00901578 </v>
   <v>       0.00450789 </v>
   <v>       0.00901578 </v>
   <v>       0.01803156 </v>
   <v>       0.03606311 </v>
   <v>       0.03606311 </v>
   <v>       0.03606311 </v>
   <v>       0.01803156 </v>
   <v>       0.03606311 </v>
   <v>       0.03606311 </v>
   <v>       0.03606311 </v>
   <v>       0.03606311 </v>
   <v>       0.01803156 </v>
   <v>       0.01803156 </v>
   <v>       0.03606311 </v>
   <v>       0.03606311 </v>
   <v>       0.01803156 </v>
   <v>       0.01803156 </v>
   <v>       0.01803156 </v>
   <v>       0.01803156 </v>
   <v>       0.03606311 </v>
   <v>       0.01803156 </v>
   <v>       0.01803156 </v>
  </varray>
 </kpoints>
 <parameters>
  <separator name="general" >
   <i type="string" name="SYSTEM">Silicon</i>
   <i type="logical" name="LCOMPAT"> F  </i>
  </separator>
  <separator name="electronic" >
   <i type="string" name="PREC">accura</i>
   <i name="ENMAX">    520.00000000</i>
   <i name="ENAUG">    412.95200000</i>
   <i name="EDIFF">      0.00000100</i>
   <i type="int" name="IALGO">    38</i>
   <i type="int" name="IWAVPR">    11</i>
   <i type="int" name="NBANDS">     8</i>
   <i type="int" name="NBANDSLOW">    -1</i>
   <i type="int" name="NBANDSHIGH">    -1</i>
   <i name="NELECT">      8.00000000</i>
   <i type="int" name="TURBO">     0</i>
   <i type="int" name="IRESTART">     0</i>
   <i type="int" name="NREBOOT">     0</i>
   <i type="int" name="NMIN">     0</i>
   <i name="EREF">      0.00000000</i>
   <separator name="electronic smearing" >
    <i type="int" name="ISMEAR">     1</i>
    <i name="SIGMA">      0.10000000</i>
    <i name="KSPACING">      0.20000000</i>
    <i type="logical" name="KGAMMA"> T  </i>
    <i type="logical" name="KBLOWUP"> T  </i>
   </separator>
   <separator name="electronic projectors" >
    <i type="logical" name="LREAL"> T  </i>
    <v name="ROPT">     -0.00025000</v>
    <i type="int" name="LMAXPAW">  -100</i>
    <i type="int" name="LMAXMIX">     2</i>
    <i type="logical" name="NLSPLINE"> F  </i>
   </separator>
   <separator name="electronic startup" >
    <i type="int" name="ISTART">     0</i>
    <i type="int" name="ICHARG">     2</i>
    <i type="int" name="INIWAV">     1</i>
   </separator>
   <separator name="electronic spin" >
    <i type="int" name="ISPIN">     1</i>
    <i type="logical" name="LNONCOLLINEAR"> F  </i>
    <v name="MAGMOM">      1.00000000      1.00000000</v>
    <i name="NUPDOWN">     -1.00000000</i>
    <i type="logical" name="LSORBIT"> F  </i>
    <v name="SAXIS">      0.00000000      0.00000000      1.00000000</v>
    <i type="logical" name="LSPIRAL"> F  </i>
    <v name="QSPIRAL">      0.00000000      0.00000000      0.00000000</v>
    <i type="logical" name="LZEROZ"> F  </i>
   </separator>
   <separator name="electronic exchange-correlation" >
    <i type="logical" name="LASPH"> F  </i>
    <i type="logical" name="LMETAGGA"> F  </i>
   </separator>
   <separator name="electronic convergence" >
    <i type="int" name="NELM">    60</i>
    <i type="int" name="NELMDL">    -5</i>
    <i type="int" name="NELMIN">     2</i>
    <i name="ENINI">    520.00000000</i>
    <separator name="electronic convergence detail" >
     <i type="logical" name="LDIAG"> T  </i>
     <i type="logical" name="LSUBROT"> F  </i>
     <i name="WEIMIN">      0.00100000</i>
     <i name="EBREAK">      0.00000003</i>
     <i name="DEPER">      0.30000000</i>
     <i type="int" name="NRMM">     4</i>
     <i name="TIME">      0.40000000</i>
    </separator>
   </separator>
   <separator name="electronic mixer" >
    <i name="AMIX">      0.40000000</i>
    <i name="BMIX">      1.00000000</i>
    <i name="AMIN">      0.10000000</i>
    <i name="AMIX_MAG">      1.60000000</i>
    <i name="BMIX_MAG">      1.00000000</i>
    <separator name="electronic mixer details" >
     <i type="int" name="IMIX">     4</i>
     <i type="logical" name="MIXFIRST"> F  </i>
     <i type="int" name="MAXMIX">   -45</i>
     <i name="WC">    100.00000000</i>
     <i type="int" name="INIMIX">     1</i>
     <i type="int" name="MIXPRE">     1</i>
     <i type="int" name="MREMOVE">     5</i>
    </separator>
   </separator>
   <separator name="electronic dipolcorrection" >
    <i type="logical" name="LDIPOL"> F  </i>
    <i type="logical" name="LMONO"> F  </i>
    <i type="int" name="IDIPOL">     0</i>
    <i name="EPSILON">      1.00000000</i>
    <v name="DIPOL">   -100.00000000   -100.00000000   -100.00000000</v>
    <i name="EFIELD">      0.00000000</i>
   </separator>
  </separator>
  <separator name="grids" >
   <i type="int" name="NGX">    30</i>
   <i type="int" name="NGY">    30</i>
   <i type="int" name="NGZ">    30</i>
   <i type="int" name="NGXF">    60</i>
   <i type="int" name="NGYF">    60</i>
   <i type="int" name="NGZF">    60</i>
   <i type="logical" name="ADDGRID"> F  </i>
  </separator>
  <separator name="ionic" >
   <i type="int" name="NSW">    50</i>
   <i type="int" name="IBRION">     2</i>
   <i type="int" name="MDALGO">     0</i>
   <i type="int" name="ISIF">     3</i>
   <i name="PSTRESS">      0.00000000</i>
   <i name="EDIFFG">     -0.02000000</i>
   <i type="int" name="NFREE">     1</i>
   <i name="POTIM">      0.50000000</i>
   <i name="SMASS">     -3.00000000</i>
   <i name="SCALEE">      1.00000000</i>
  </separator>
  <separator name="ionic md" >
   <i name="TEBEG">      0.00010000</i>
   <i name="TEEND">      0.00010000</i>
   <i type="int" name="NBLOCK">     1</i>
   <i type="int" name="KBLOCK">    50</i>
   <i type="int" name="NPACO">   256</i>
   <i name="APACO">     10.00000000</i>
  </separator>
  <separator name="symmetry" >
   <i type="int" name="ISYM">     2</i>
   <i name="SYMPREC">      0.00001000</i>
  </separator>
  <separator name="dos" >
   <i type="int" name="LORBIT">     0</i>
   <v name="RWIGS">     -1.00000000</v>
   <i type="int" name="NEDOS">   301</i>
   <i name="EMIN">     10.00000000</i>
   <i name="EMAX">    -10.00000000</i>
   <i name="EFERMI">      0.00000000</i>
  </separator>
  <separator name="writing" >
   <i type="int" name="NWRITE">     2</i>
   <i type="logical" name="LWAVE"> T  </i>
   <i type="logical" name="LDOWNSAMPLE"> F  </i>
   <i type="logical" name="LCHARG"> T  </i>
   <i type="logical" name="LPARD"> F  </i>
   <i type="logical" name="LVTOT"> F  </i>
   <i type="logical" name="LVHAR"> F  </i>
   <i type="logical" name="LELF"> F  </i>
   <i type="logical" name="LOPTICS"> F  </i>
   <v name="STM">      0.00000000      0.00000000      0.00000000      0.00000000      0.00000000      0.00000000      0.00000000</v>
  </separator>
  <separator name="performance" >
   <i type="int" name="NPAR">     1</i>
   <i type="int" name="NSIM">     4</i>
   <i type="int" name="NBLK">    -1</i>
   <i type="logical" name="LPLANE"> T  </i>
   <i type="logical" name="LSCALAPACK"> T  </i>
   <i type="logical" name="LSCAAWARE"> F  </i>
   <i type="logical" name="LSCALU"> F  </i>
   <i type="logical" name="LASYNC"> F  </i>
   <i type="logical" name="LORBITALREAL"> F  </i>
  </separator>
  <separator name="miscellaneous" >
   <i type="int" name="IDIOT">     3</i>
   <i type="int" name="PHON_NSTRUCT">    -1</i>
   <i type="logical" name="LMUSIC"> F  </i>
   <v name="POMASS">     28.08500000</v>
   <v name="DARWINR">      0.00000000</v>
   <v name="DARWINV">      1.00000000</v>
   <i type="logical" name="LCORR"> T  </i>
  </separator>
  <i type="logical" name="GGA_COMPAT"> T  </i>
  <i type="logical" name="LBERRY"> F  </i>
  <i type="int" name="ICORELEVEL">     0</i>
  <i type="logical" name="LDAU"> F  </i>
  <i type="int" name="I_CONSTRAINED_M">     0</i>
  <separator name="electronic exchange-correlation" >
   <i type="string" name="GGA">--</i>
   <i type="int" name="VOSKOWN">     0</i>
   <i type="logical" name="LHFCALC"> F  </i>
   <i type="string" name="PRECFOCK"></i>
   <i type="logical" name="LSYMGRAD"> F  </i>
   <i type="logical" name="LHFONE"> F  </i>
   <i type="logical" name="LRHFCALC"> F  </i>
   <i type="logical" name="LTHOMAS"> F  </i>
   <i type="logical" name="LMODELHF"> F  </i>
   <i type="logical" name="LFOCKACE"> F  </i>
   <i name="ENCUT4O">     -1.00000000</i>
   <i type="int" name="EXXOEP">     0</i>
   <i type="int" name="FOURORBIT">     0</i>
   <i name="AEXX">      0.00000000</i>
   <i name="HFALPHA">      0.00000000</i>
   <i name="MCALPHA">      0.00000000</i>
   <i name="ALDAX">      1.00000000</i>
   <i name="AGGAX">      1.00000000</i>
   <i name="ALDAC">      1.00000000</i>
   <i name="AGGAC">      1.00000000</i>
   <i type="int" name="NKREDX">     1</i>
   <i type="int" name="NKREDY">     1</i>
   <i type="int" name="NKREDZ">     1</i>
   <i type="logical" name="SHIFTRED"> F  </i>
   <i type="logical" name="ODDONLY"> F  </i>
   <i type="logical" name="EVENONLY"> F  </i>
   <i type="int" name="LMAXFOCK">     0</i>
   <i type="int" name="NMAXFOCKAE">     0</i>
   <i type="logical" name="LFOCKAEDFT"> F  </i>
   <i name="HFSCREEN">      0.00000000</i>
   <i name="HFSCREENC">      0.00000000</i>
   <i type="int" name="NBANDSGWLOW">     0</i>
  </separator>
  <separator name="vdW DFT" >
   <i type="logical" name="LUSE_VDW"> F  </i>
   <i name="Zab_VDW">     -0.84910000</i>
   <i name="PARAM1">      0.12340000</i>
   <i name="PARAM2">      1.00000000</i>
   <i name="PARAM3">      0.00000000</i>
  </separator>
  <separator name="model GW" >
   <i type="int" name="MODEL_GW">     0</i>
   <i name="MODEL_EPS0">     12.00772552</i>
   <i name="MODEL_ALPHA">      1.00000000</i>
  </separator>
  <separator name="linear response parameters" >
   <i type="logical" name="LEPSILON"> F  </i>
   <i type="logical" name="LRPA"> F  </i>
   <i type="logical" name="LNABLA"> F  </i>
   <i type="logical" name="LVEL"> F  </i>
   <i name="CSHIFT">      0.10000000</i>
   <i name="OMEGAMAX">     -1.00000000</i>
   <i name="DEG_THRESHOLD">      0.00200000</i>
   <i name="RTIME">     -0.10000000</i>
   <i name="WPLASMAI">      0.00000000</i>
   <v name="DFIELD">      0.00000000      0.00000000      0.00000000</v>
   <v name="WPLASMA">      0.00000000      0.00000000      0.00000000      0.00000000      0.00000000      0.00000000      0.00000000      0.00000000      0.00000000</v>
  </separator>
  <separator name="orbital magnetization" >
   <i type="logical" name="NUCIND"> F  </i>
   <v name="MAGPOS">      0.00000000      0.00000000      0.00000000</v>
   <i type="logical" name="LNICSALL"> T  </i>
   <i type="logical" name="ORBITALMAG"> F  </i>
   <i type="logical" name="LMAGBLOCH"> F  </i>
   <i type="logical" name="LCHIMAG"> F  </i>
   <i type="logical" name="LGAUGE"> T  </i>
   <i type="int" name="MAGATOM">     0</i>
   <v name="MAGDIPOL">      0.00000000      0.00000000      0.00000000</v>
   <v name="AVECCONST">      0.00000000      0.00000000      0.00000000</v>
  </separator>
  <separator name="response functions" >
   <i type="logical" name="LFINITE_TEMPERATURE"> F  </i>
   <i type="logical" name="LADDER"> F  </i>
   <i type="logical" name="LRPAFORCE"> F  </i>
   <i type="logical" name="LFXC"> F  </i>
   <i type="logical" name="LHARTREE"> T  </i>
   <i type="int" name="IBSE">     0</i>
   <v type="int" name="KPOINT">    -1     0     0     0</v>
   <i type="logical" name="LTCTC"> F  </i>
   <i type="logical" name="LTCTE"> F  </i>
   <i type="logical" name="LTETE"> F  </i>
   <i type="logical" name="LTRIPLET"> F  </i>
   <i type="logical" name="LFXCEPS"> F  </i>
   <i type="logical" name="LFXHEG"> F  </i>
   <i type="int" name="NATURALO">     2</i>
   <i type="logical" name="LHOLEGF"> F  </i>
   <i type="logical" name="L2ORDER"> F  </i>
   <i type="logical" name="LDMP1"> F  </i>
   <i type="logical" name="LMP2LT"> F  </i>
   <i type="logical" name="LSMP2LT"> F  </i>
   <i type="logical" name="LGWLF"> F  </i>
   <i name="ENCUTGW">     -2.00000000</i>
   <i name="ENCUTGWSOFT">     -2.00000000</i>
   <i name="ENCUTLF">     -1.00000000</i>
   <i type="logical" name="LESF_SPLINES"> F  </i>
   <i type="int" name="LMAXMP2">    -1</i>
   <i name="SCISSOR">      0.00000000</i>
   <i type="int" name="NOMEGA">     0</i>
   <i type="int" name="NOMEGAR">     0</i>
   <i type="int" name="NBANDSGW">    -1</i>
   <i type="int" name="NBANDSO">    -1</i>
   <i type="int" name="NBANDSV">    -1</i>
   <i type="int" name="NELMGW">     1</i>
   <i type="int" name="NELMHF">     1</i>
   <i type="int" name="DIM">     3</i>
   <i type="int" name="IESPILON">     4</i>
   <i type="int" name="ANTIRES">     0</i>
   <i name="OMEGAMAX">    -30.00000000</i>
   <i name="OMEGAMIN">    -30.00000000</i>
   <i name="OMEGATL">   -200.00000000</i>
   <i type="int" name="OMEGAGRID">     0</i>
   <i name="CSHIFT">     -0.10000000</i>
   <i type="logical" name="LSELFENERGY"> F  </i>
   <i type="logical" name="LSPECTRAL"> F  </i>
   <i type="logical" name="LSPECTRALGW"> F  </i>
   <i type="logical" name="LSINGLES"> F  </i>
   <i type="logical" name="LFERMIGW"> F  </i>
   <i type="logical" name="ODDONLYGW"> F  </i>
   <i type="logical" name="EVENONLYGW"> F  </i>
   <i type="int" name="NKREDLFX">     1</i>
   <i type="int" name="NKREDLFY">     1</i>
   <i type="int" name="NKREDLFZ">     1</i>
   <i type="int" name="MAXMEM">  2800</i>
   <i type="int" name="TELESCOPE">     0</i>
   <i type="int" name="NTAUPAR">    -1</i>
   <i type="int" name="NOMEGAPAR">    -1</i>
   <i name="DAMP_NEWTON">      0.80000001</i>
   <i name="LAMBDA">      1.00000000</i>
  </separator>
  <separator name="External order field" >
   <i name="OFIELD_KAPPA">      0.00000000</i>
   <v name="OFIELD_K">      0.00000000      0.00000000      0.00000000</v>
   <i name="OFIELD_Q6_NEAR">      0.00000000</i>
   <i name="OFIELD_Q6_FAR">      0.00000000</i>
   <i name="OFIELD_A">      0.00000000</i>
  </separator>
  <separator name="optional k-points parameters" >
   <i type="int" name="KPOINTS_OPT_MODE">     1</i>
   <i type="logical" name="LKPOINTS_OPT"> F  </i>
  </separator>
 </parameters>
 <atominfo>
  <atoms>       2 </atoms>
  <types>       1 </types>
  <array name="atoms" >
   <dimension dim="1">ion</dimension>
   <field type="string">element</field>
   <field type="int">atomtype</field>
   <set>
    <rc><c>Si</c><c>   1</c></rc>
    <rc><c>Si</c><c>   1</c></rc>
   </set>
  </array>
  <array name="atomtypes" >
   <dimension dim="1">type</dimension>
   <field type="int">atomspertype</field>
   <field type="string">element</field>
   <field>mass</field>
   <field>valence</field>
   <field type="string">pseudopotential</field>
   <set>
    <rc><c>   2</c><c>Si</c><c>     28.08500000</c><c>      4.00000000</c><c>  PAW_PBE Si_GW 04May2012               </c></rc>
   </set>
  </array>
 </atominfo>
 <structure name="initialpos" >
  <crystal>
   <varray name="basis" >
    <v>       2.71500000       2.71500000       0.00000000 </v>
    <v>       0.00000000       2.71500000       2.71500000 </v>
    <v>       2.71500000       0.00000000       2.71500000 </v>
   </varray>
   <i name="volume">     40.02575175 </i>
   <varray name="rec_basis" >
    <v>       0.18416206       0.18416206      -0.18416206 </v>
    <v>      -0.18416206       0.18416206       0.18416206 </v>
    <v>       0.18416206      -0.18416206       0.18416206 </v>
   </varray>
  </crystal>
  <varray name="positions" >
   <v>       0.00000000       0.00000000       0.00000000 </v>
   <v>       0.25000000       0.25000000       0.25000000 </v>
  </varray>
 </structure>
 <calculation>
  <scstep>
   <time name="dav">    0.88    0.88</time>
   <time name="total">    0.95    0.95</time>
   <energy>
    <i name="alphaZ">      6.08881246 </i>
    <i name="ewald">   -228.56352493 </i>
    <i name="hartreedc">    -11.07014067 </i>
    <i name="XCdc">    -18.88190738 </i>
    <i name="pawpsdc">    176.77094182 </i>
    <i name="pawaedc">   -141.06103538 </i>
    <i name="eentropy">     -0.00005319 </i>
    <i name="bandstr">     15.31971926 </i>
    <i name="atom">    206.13270273 </i>
    <i name="e_fr_energy">      4.73551473 </i>
    <i name="e_wo_entrp">      4.73556792 </i>
    <i name="e_0_energy">      4.73553246 </i>
   </energy>
  </scstep>
  <scstep>
   <time name="dav">    1.00    1.00</time>
   <time name="total">    1.00    1.06</time>
   <energy>
    <i name="e_fr_energy">    -10.64532064 </i>
    <i name="e_wo_entrp">    -10.64553506 </i>
    <i name="e_0_energy">    -10.64539211 </i>
   </energy>
  </scstep>
  <scstep>
   <time name="dav">    0.87    0.93</time>
   <time name="total">    0.88    0.89</time>
   <energy>
    <i name="e_fr_energy">    -11.01795725 </i>
    <i name="e_wo_entrp">    -11.01800876 </i>
    <i name="e_0_energy">    -11.01797442 </i>
   </energy>
  </scstep>
  <scstep>
   <time name="dav">    1.17    1.18</time>
   <time name="total">    1.17    1.18</time>
   <energy>
    <i name="e_fr_energy">    -11.02501709 </i>
    <i name="e_wo_entrp">    -11.02506142 </i>
    <i name="e_0_energy">    -11.02503187 </i>
   </energy>
  </scstep>
  <scstep>
   <time name="dav">    1.00    1.02</time>
   <time name="total">    1.07    1.09</time>
   <energy>
    <i name="e_fr_energy">    -11.02509120 </i>
    <i name="e_wo_entrp">    -11.02513537 </i>
    <i name="e_0_energy">    -11.02510592 </i>
   </energy>
  </scstep>
  <scstep>
   <time name="dav">    1.03    1.03</time>
   <time name="total">    1.15    1.16</time>
   <energy>
    <i name="e_fr_energy">    -10.89888423 </i>
    <i name="e_wo_entrp">    -10.89892371 </i>
    <i name="e_0_energy">    -10.89889739 </i>
   </energy>
  </scstep>
  <scstep>
   <time name="dav">    1.03    1.03</time>
   <time name="total">    1.16    1.19</time>
   <energy>
    <i name="e_fr_energy">    -10.83975896 </i>
    <i name="e_wo_entrp">    -10.83979268 </i>
    <i name="e_0_energy">    -10.83977020 </i>
   </energy>
  </scstep>
  <scstep>
   <time name="dav">    0.89    0.93</time>
   <time name="total">    1.01    1.05</time>
   <energy>
    <i name="e_fr_energy">    -10.84100122 </i>
    <i name="e_wo_entrp">    -10.84103473 </i>
    <i name="e_0_energy">    -10.84101239 </i>
   </energy>
  </scstep>
  <scstep>
   <time name="dav">    1.16    1.16</time>
   <time name="total">    1.29    1.31</time>
   <energy>
    <i name="e_fr_energy">    -10.84111256 </i>
    <i name="e_wo_entrp">    -10.84114594 </i>
    <i name="e_0_energy">    -10.84112368 </i>
   </energy>
  </scstep>
  <scstep>
   <time name="dav">    0.89    0.91</time>
   <time name="total">    1.01    1.07</time>
   <energy>
    <i name="e_fr_energy">    -10.84113349 </i>
    <i name="e_wo_entrp">    -10.84116680 </i>
    <i name="e_0_energy">    -10.84114459 </i>
   </energy>
  </scstep>
  <scstep>
   <time name="dav">    1.03    1.03</time>
   <time name="total">    1.09    1.10</time>
   <energy>
    <i name="alphaZ">      6.08881246 </i>
    <i name="ewald">   -228.56352493 </i>
    <i name="hartreedc">    -14.92524121 </i>
    <i name="XCdc">    -18.21633276 </i>
    <i name="pawpsdc">    257.87386803 </i>
    <i name="pawaedc">   -222.43549825 </i>
    <i name="eentropy">      0.00003331 </i>
    <i name="bandstr">      3.20404742 </i>
    <i name="atom">    206.13270273 </i>
    <i name="e_fr_energy">    -10.84113320 </i>
    <i name="e_wo_entrp">    -10.84116651 </i>
    <i name="e_0_energy">    -10.84114430 </i>
   </energy>
  </scstep>
  <structure>
   <crystal>
    <varray name="basis" >
     <v>       2.71500000       2.71500000       0.00000000 </v>
     <v>       0.00000000       2.71500000       2.71500000 </v>
     <v>       2.71500000       0.00000000       2.71500000 </v>
    </varray>
    <i name="volume">     40.02575175 </i>
    <varray name="rec_basis" >
     <v>       0.18416206       0.18416206      -0.18416206 </v>
     <v>      -0.18416206       0.18416206       0.18416206 </v>
     <v>       0.18416206      -0.18416206       0.18416206 </v>
    </varray>
   </crystal>
   <varray name="positions" >
    <v>       0.00000000       0.00000000       0.00000000 </v>
    <v>       0.25000000       0.25000000       0.25000000 </v>
   </varray>
  </structure>
  <varray name="forces" >
   <v>       0.00000000       0.00000000       0.00000000 </v>
   <v>      -0.00000000      -0.00000000      -0.00000000 </v>
  </varray>
  <varray name="stress" >
   <v>      20.22734701       0.00000000       0.00000000 </v>
   <v>       0.00000000      20.22734701      -0.00000000 </v>
   <v>      -0.00000000       0.00000000      20.22734701 </v>
  </varray>
  <energy>
   <i name="e_fr_energy">    -10.84113320 </i>
   <i name="e_wo_entrp">    -10.84116651 </i>
   <i name="e_0_energy">    -10.84114430 </i>
  </energy>
  <time name="totalsc">   14.05   16.82</time>
 </calculation>
 <calculation>
  <scstep>
   <time name="dav">    1.10    1.10</time>
   <time name="total">    1.22    1.28</time>
   <energy>
    <i name="alphaZ">      5.87148186 </i>
    <i name="ewald">   -225.81110726 </i>
    <i name="hartreedc">    -14.74575276 </i>
    <i name="XCdc">    -18.39399734 </i>
    <i name="pawpsdc">    257.89053955 </i>
    <i name="pawaedc">   -222.45212840 </i>
    <i name="eentropy">      0.00003895 </i>
    <i name="bandstr">      0.65686174 </i>
    <i name="atom">    206.13270273 </i>
    <i name="e_fr_energy">    -10.85136091 </i>
    <i name="e_wo_entrp">    -10.85139986 </i>
    <i name="e_0_energy">    -10.85137390 </i>
   </energy>
  </scstep>
  <scstep>
   <time name="dav">    0.92    0.92</time>
   <time name="total">    1.04    1.10</time>
   <energy>
    <i name="e_fr_energy">    -10.84654428 </i>
    <i name="e_wo_entrp">    -10.84658246 </i>
    <i name="e_0_energy">    -10.84655701 </i>
   </energy>
  </scstep>
  <scstep>
   <time name="dav">    0.96    0.96</time>
   <time name="total">    1.07    1.13</time>
   <energy>
    <i name="e_fr_energy">    -10.84411176 </i>
    <i name="e_wo_entrp">    -10.84414897 </i>
    <i name="e_0_energy">    -10.84412416 </i>
   </energy>
  </scstep>
  <scstep>
   <time name="dav">    0.91    0.91</time>
   <time name="total">    1.02    1.05</time>
   <energy>
    <i name="e_fr_energy">    -10.84409990 </i>
    <i name="e_wo_entrp">    -10.84413707 </i>
    <i name="e_0_energy">    -10.84411229 </i>
   </energy>
  </scstep>
  <scstep>
   <time name="dav">    1.06    1.06</time>
   <time name="total">    1.11    1.17</time>
   <energy>
    <i name="alphaZ">      5.87148186 </i>
    <i name="ewald">   -225.81110726 </i>
    <i name="hartreedc">    -15.36469624 </i>
    <i name="XCdc">    -18.37997335 </i>
    <i name="pawpsdc">    249.49266654 </i>
    <i name="pawaedc">   -214.02824854 </i>
    <i name="eentropy">      0.00003715 </i>
    <i name="bandstr">      1.24303763 </i>
    <i name="atom">    206.13270273 </i>
    <i name="e_fr_energy">    -10.84409947 </i>
    <i name="e_wo_entrp">    -10.84413662 </i>
    <i name="e_0_energy">    -10.84411185 </i>
   </energy>
  </scstep>
  <structure>
   <crystal>
    <varray name="basis" >
     <v>       2.74809321       2.74809321       0.00000000 </v>
     <v>       0.00000000       2.74809321       2.74809321 </v>
     <v>       2.74809321       0.00000000       2.74809321 </v>
    </varray>
    <i name="volume">     41.50728930 </i>
    <varray name="rec_basis" >
     <v>       0.18194434       0.18194434      -0.18194434 </v>
     <v>      -0.18194434       0.18194434       0.18194434 </v>
     <v>       0.18194434      -0.18194434       0.18194434 </v>
    </varray>
   </crystal>
   <varray name="positions" >
    <v>       0.00000000       0.00000000       0.00000000 </v>
    <v>       0.25000000       0.25000000       0.25000000 </v>
   </varray>
  </structure>
  <varray name="forces" >
   <v>      -0.00000000      -0.00000000      -0.00000000 </v>
   <v>       0.00000000       0.00000000       0.00000000 </v>
  </varray>
  <varray name="stress" >
   <v>     -12.67237411      -0.00000000      -0.00000000 </v>
   <v>      -0.00000000     -12.67237411       0.00000000 </v>
   <v>      -0.00000000       0.00000000     -12.67237411 </v>
  </varray>
  <energy>
   <i name="e_fr_energy">    -10.84409947 </i>
   <i name="e_wo_entrp">    -10.84413662 </i>
   <i name="e_0_energy">    -10.84411185 </i>
  </energy>
  <time name="totalsc">    7.37    7.70</time>
 </calculation>
 <calculation>
  <scstep>
   <time name="dav">    1.10    1.10</time>
   <time name="total">    1.22    1.25</time>
   <energy>
    <i name="alphaZ">      5.95859365 </i>
    <i name="ewald">   -226.92237264 </i>
    <i name="hartreedc">    -15.44168791 </i>
    <i name="XCdc">    -18.30835211 </i>
    <i name="pawpsdc">    249.58352449 </i>
    <i name="pawaedc">   -214.11942279 </i>
    <i name="eentropy">      0.00003483 </i>
    <i name="bandstr">      2.26932335 </i>
    <i name="atom">    206.13270273 </i>
    <i name="e_fr_energy">    -10.84765640 </i>
    <i name="e_wo_entrp">    -10.84769124 </i>
    <i name="e_0_energy">    -10.84766802 </i>
   </energy>
  </scstep>
  <scstep>
   <time name="dav">    0.99    0.99</time>
   <time name="total">    1.11    1.12</time>
   <energy>
    <i name="e_fr_energy">    -10.84686147 </i>
    <i name="e_wo_entrp">    -10.84689656 </i>
    <i name="e_0_energy">    -10.84687317 </i>
   </energy>
  </scstep>
  <scstep>
   <time name="dav">    0.95    0.95</time>
   <time name="total">    1.06    1.10</time>
   <energy>
    <i name="e_fr_energy">    -10.84646821 </i>
    <i name="e_wo_entrp">    -10.84650362 </i>
    <i name="e_0_energy">    -10.84648001 </i>
   </energy>
  </scstep>
  <scstep>
   <time name="dav">    0.87    0.87</time>
   <time name="total">    0.98    1.01</time>
   <energy>
    <i name="e_fr_energy">    -10.84647196 </i>
    <i name="e_wo_entrp">    -10.84650740 </i>
    <i name="e_0_energy">    -10.84648378 </i>
   </energy>
  </scstep>
  <scstep>
   <time name="dav">    0.85    0.85</time>
   <time name="total">    0.91    0.92</time>
   <energy>
    <i name="alphaZ">      5.95859365 </i>
    <i name="ewald">   -226.92237264 </i>
    <i name="hartreedc">    -15.18729345 </i>
    <i name="XCdc">    -18.31364777 </i>
    <i name="pawpsdc">    252.90475036 </i>
    <i name="pawaedc">   -217.45096998 </i>
    <i name="eentropy">      0.00003544 </i>
    <i name="bandstr">      2.03172900 </i>
    <i name="atom">    206.13270273 </i>
    <i name="e_fr_energy">    -10.84647266 </i>
    <i name="e_wo_entrp">    -10.84650810 </i>
    <i name="e_0_energy">    -10.84648447 </i>
   </energy>
  </scstep>
  <structure>
   <crystal>
    <varray name="basis" >
     <v>       2.73463547       2.73463547       0.00000000 </v>
     <v>       0.00000000       2.73463547       2.73463547 </v>
     <v>       2.73463547       0.00000000       2.73463547 </v>
    </varray>
    <i name="volume">     40.90047253 </i>
    <varray name="rec_basis" >
     <v>       0.18283973       0.18283973      -0.18283973 </v>
     <v>      -0.18283973       0.18283973       0.18283973 </v>
     <v>       0.18283973      -0.18283973       0.18283973 </v>
    </varray>
   </crystal>
   <varray name="positions" >
    <v>       0.00000000       0.00000000       0.00000000 </v>
    <v>       0.25000000       0.25000000       0.25000000 </v>
   </varray>
  </structure>
  <varray name="forces" >
   <v>      -0.00000000       0.00000000      -0.00000000 </v>
   <v>       0.00000000      -0.00000000       0.00000000 </v>
  </varray>
  <varray name="stress" >
   <v>       0.41444951       0.00000000      -0.00000000 </v>
   <v>      -0.00000000       0.41444951       0.00000000 </v>
   <v>      -0.00000000       0.00000000       0.41444951 </v>
  </varray>
  <energy>
   <i name="e_fr_energy">    -10.84647266 </i>
   <i name="e_wo_entrp">    -10.84650810 </i>
   <i name="e_0_energy">    -10.84648447 </i>
  </energy>
  <time name="totalsc">    7.06    7.39</time>
  <eigenvalues>
   <array>
    <dimension dim="1">band</dimension>
    <dimension dim="2">kpoint</dimension>
    <dimension dim="3">spin</dimension>
    <field>eigene</field>
    <field>occ</field>
    <set>
     <set comment="spin 1">
      <set comment="kpoint 1">
       <r>   -6.5591    1.0000 </r>
       <r>    5.2566    0.9705 </r>
       <r>    5.2566    0.9705 </r>
       <r>    5.2566    0.9705 </r>
       <r>    7.8127   -0.0000 </r>
       <r>    7.8127   -0.0000 </r>
       <r>    7.8127   -0.0000 </r>
       <r>    8.3765    0.0000 </r>
      </set>
      <set comment="kpoint 2">
       <r>   -6.4529    1.0000 </r>
       <r>    4.2702    1.0000 </r>
       <r>    5.0925    1.0020 </r>
       <r>    5.0925    1.0020 </r>
       <r>    7.8003   -0.0000 </r>
       <r>    8.0544   -0.0000 </r>
       <r>    8.0544   -0.0000 </r>
       <r>    9.2020    0.0000 </r>
      </set>
      <set comment="kpoint 3">
       <r>   -6.1382    1.0000 </r>
       <r>    2.6093    1.0000 </r>
       <r>    4.7573    1.0000 </r>
       <r>    4.7573    1.0000 </r>
       <r>    7.4778   -0.0000 </r>
       <r>    8.5217    0.0000 </r>
       <r>    8.5217    0.0000 </r>
       <r>   10.7998    0.0000 </r>
      </set>
      <set comment="kpoint 4">
       <r>   -5.6319    1.0000 </r>
       <r>    0.9725    1.0000 </r>
       <r>    4.4379    1.0000 </r>
       <r>    4.4379    1.0000 </r>
       <r>    7.1307   -0.0000 </r>
       <r>    8.7753    0.0000 </r>
       <r>    8.7753    0.0000 </r>
       <r>   12.3684    0.0000 </r>
      </set>
      <set comment="kpoint 5">
       <r>   -4.9850    1.0000 </r>
       <r>   -0.4601    1.0000 </r>
       <r>    4.2087    1.0000 </r>
       <r>    4.2087    1.0000 </r>
       <r>    6.8712   -0.0000 </r>
       <r>    8.7258    0.0000 </r>
       <r>    8.7258    0.0000 </r>
       <r>   13.0992    0.0000 </r>
      </set>
      <set comment="kpoint 6">
       <r>   -4.3900    1.0000 </r>
       <r>   -1.4552    1.0000 </r>
       <r>    4.0918    1.0000 </r>
       <r>    4.0918    1.0000 </r>
       <r>    6.7360   -0.0000 </r>
       <r>    8.6238    0.0000 </r>
       <r>    8.6238    0.0000 </r>
       <r>   12.9844    0.0000 </r>
      </set>
      <set comment="kpoint 7">
       <r>   -6.4173    1.0000 </r>
       <r>    4.4357    1.0000 </r>
       <r>    4.7739    1.0000 </r>
       <r>    4.7739    1.0000 </r>
       <r>    7.4984   -0.0000 </r>
       <r>    8.4697    0.0000 </r>
       <r>    8.4697    0.0000 </r>
       <r>    9.1283    0.0000 </r>
      </set>
      <set comment="kpoint 8">
       <r>   -6.1713    1.0000 </r>
       <r>    3.0954    1.0000 </r>
       <r>    4.3837    1.0000 </r>
       <r>    4.5566    1.0000 </r>
       <r>    7.5313   -0.0000 </r>
       <r>    8.4927    0.0000 </r>
       <r>    9.0538    0.0000 </r>
       <r>   10.1188    0.0000 </r>
      </set>
      <set comment="kpoint 9">
       <r>   -5.7262    1.0000 </r>
       <r>    1.4972    1.0000 </r>
       <r>    4.0687    1.0000 </r>
       <r>    4.1878    1.0000 </r>
       <r>    7.6353   -0.0000 </r>
       <r>    8.5011    0.0000 </r>
       <r>    9.4063    0.0000 </r>
       <r>   10.5860    0.0000 </r>
      </set>
      <set comment="kpoint 10">
       <r>   -5.1165    1.0000 </r>
       <r>    0.0127    1.0000 </r>
       <r>    3.8107    1.0000 </r>
       <r>    3.8836    1.0000 </r>
       <r>    7.4700   -0.0000 </r>
       <r>    8.5587    0.0000 </r>
       <r>    9.3483    0.0000 </r>
       <r>   11.3510    0.0000 </r>
      </set>
      <set comment="kpoint 11">
       <r>   -4.4621    1.0000 </r>
       <r>   -1.1582    1.0000 </r>
       <r>    3.5170    1.0000 </r>
       <r>    3.8425    1.0000 </r>
       <r>    7.3257   -0.0000 </r>
       <r>    8.5280    0.0000 </r>
       <r>    9.1198    0.0000 </r>
       <r>   12.5781    0.0000 </r>
      </set>
      <set comment="kpoint 12">
       <r>   -4.2000    1.0000 </r>
       <r>   -1.5502    1.0000 </r>
       <r>    3.3429    1.0000 </r>
       <r>    3.9415    1.0000 </r>
       <r>    7.2963   -0.0000 </r>
       <r>    8.5865    0.0000 </r>
       <r>    8.9383    0.0000 </r>
       <r>   13.2863    0.0000 </r>
      </set>
      <set comment="kpoint 13">
       <r>   -4.6704    1.0000 </r>
       <r>   -0.8177    1.0000 </r>
       <r>    3.3090    1.0000 </r>
       <r>    4.1648    1.0000 </r>
       <r>    7.3946   -0.0000 </r>
       <r>    8.7748    0.0000 </r>
       <r>    8.8592    0.0000 </r>
       <r>   12.9589    0.0000 </r>
      </set>
      <set comment="kpoint 14">
       <r>   -5.3354    1.0000 </r>
       <r>    0.4875    1.0000 </r>
       <r>    3.4309    1.0000 </r>
       <r>    4.4838    1.0000 </r>
       <r>    7.6095   -0.0000 </r>
       <r>    8.7867    0.0000 </r>
       <r>    8.9800    0.0000 </r>
       <r>   11.8965    0.0000 </r>
      </set>
      <set comment="kpoint 15">
       <r>   -5.8965    1.0000 </r>
       <r>    2.0143    1.0000 </r>
       <r>    3.7265    1.0000 </r>
       <r>    4.8429    1.0000 </r>
       <r>    7.9061   -0.0000 </r>
       <r>    8.5023    0.0000 </r>
       <r>    8.8482    0.0000 </r>
       <r>   11.0007    0.0000 </r>
      </set>
      <set comment="kpoint 16">
       <r>   -6.2768    1.0000 </r>
       <r>    3.4663    1.0000 </r>
       <r>    4.2856    1.0000 </r>
       <r>    5.1143    1.0047 </r>
       <r>    8.1052    0.0000 </r>
       <r>    8.1387    0.0000 </r>
       <r>    8.2668    0.0000 </r>
       <r>   10.0953    0.0000 </r>
      </set>
      <set comment="kpoint 17">
       <r>   -5.9942    1.0000 </r>
       <r>    2.9369    1.0000 </r>
       <r>    3.9573    1.0000 </r>
       <r>    3.9573    1.0000 </r>
       <r>    6.8614   -0.0000 </r>
       <r>    9.3275    0.0000 </r>
       <r>    9.7996    0.0000 </r>
       <r>    9.7996    0.0000 </r>
      </set>
      <set comment="kpoint 18">
       <r>   -5.6140    1.0000 </r>
       <r>    1.7962    1.0000 </r>
       <r>    3.5419    1.0000 </r>
       <r>    3.6191    1.0000 </r>
       <r>    6.9130   -0.0000 </r>
       <r>    8.9352    0.0000 </r>
       <r>   10.0829    0.0000 </r>
       <r>   10.3785    0.0000 </r>
      </set>
      <set comment="kpoint 19">
       <r>   -5.0535    1.0000 </r>
       <r>    0.4475    1.0000 </r>
       <r>    3.0154    1.0000 </r>
       <r>    3.4247    1.0000 </r>
       <r>    7.1465   -0.0000 </r>
       <r>    9.2924    0.0000 </r>
       <r>    9.8817    0.0000 </r>
       <r>   10.4646    0.0000 </r>
      </set>
      <set comment="kpoint 20">
       <r>   -4.3876    1.0000 </r>
       <r>   -0.7673    1.0000 </r>
       <r>    2.5451    1.0000 </r>
       <r>    3.3920    1.0000 </r>
       <r>    7.1846   -0.0000 </r>
       <r>    9.6492    0.0000 </r>
       <r>   10.2196    0.0000 </r>
       <r>   10.4992    0.0000 </r>
      </set>
      <set comment="kpoint 21">
       <r>   -3.9175    1.0000 </r>
       <r>   -1.4609    1.0000 </r>
       <r>    2.2151    1.0000 </r>
       <r>    3.5201    1.0000 </r>
       <r>    7.2799   -0.0000 </r>
       <r>    9.5253    0.0000 </r>
       <r>    9.9344    0.0000 </r>
       <r>   12.1053    0.0000 </r>
      </set>
      <set comment="kpoint 22">
       <r>   -4.1952    1.0000 </r>
       <r>   -1.0590    1.0000 </r>
       <r>    2.0664    1.0000 </r>
       <r>    3.7931    1.0000 </r>
       <r>    7.5231   -0.0000 </r>
       <r>    9.5197    0.0000 </r>
       <r>    9.7117    0.0000 </r>
       <r>   12.9100    0.0000 </r>
      </set>
      <set comment="kpoint 23">
       <r>   -4.8522    1.0000 </r>
       <r>    0.0356    1.0000 </r>
       <r>    2.1510    1.0000 </r>
       <r>    4.1735    1.0000 </r>
       <r>    7.8779   -0.0000 </r>
       <r>    9.4653    0.0000 </r>
       <r>    9.5753    0.0000 </r>
       <r>   11.5269    0.0000 </r>
      </set>
      <set comment="kpoint 24">
       <r>   -5.4569    1.0000 </r>
       <r>    1.2079    1.0000 </r>
       <r>    2.6305    1.0000 </r>
       <r>    4.5802    1.0000 </r>
       <r>    8.1913    0.0000 </r>
       <r>    8.9782    0.0000 </r>
       <r>    9.2682    0.0000 </r>
       <r>   10.8573    0.0000 </r>
      </set>
      <set comment="kpoint 25">
       <r>   -5.2983    1.0000 </r>
       <r>    1.3318    1.0000 </r>
       <r>    3.2472    1.0000 </r>
       <r>    3.2472    1.0000 </r>
       <r>    6.2804   -0.0000 </r>
       <r>    8.0669    0.0000 </r>
       <r>   11.3424    0.0000 </r>
       <r>   11.3424    0.0000 </r>
      </set>
      <set comment="kpoint 26">
       <r>   -4.7940    1.0000 </r>
       <r>    0.3909    1.0000 </r>
       <r>    2.7199    1.0000 </r>
       <r>    3.0189    1.0000 </r>
       <r>    6.4119   -0.0000 </r>
       <r>    7.7816   -0.0000 </r>
       <r>   11.6193    0.0000 </r>
       <r>   11.8068    0.0000 </r>
      </set>
      <set comment="kpoint 27">
       <r>   -4.1471    1.0000 </r>
       <r>   -0.6206    1.0000 </r>
       <r>    2.0061    1.0000 </r>
       <r>    2.9580    1.0000 </r>
       <r>    6.6121   -0.0000 </r>
       <r>    8.5212    0.0000 </r>
       <r>   11.4551    0.0000 </r>
       <r>   11.6797    0.0000 </r>
      </set>
      <set comment="kpoint 28">
       <r>   -3.5472    1.0000 </r>
       <r>   -1.4054    1.0000 </r>
       <r>    1.4432    1.0000 </r>
       <r>    3.0683    1.0000 </r>
       <r>    6.7444   -0.0000 </r>
       <r>    9.9834    0.0000 </r>
       <r>   11.2855    0.0000 </r>
       <r>   11.3589    0.0000 </r>
      </set>
      <set comment="kpoint 29">
       <r>   -3.6029    1.0000 </r>
       <r>   -1.3270    1.0000 </r>
       <r>    1.1645    1.0000 </r>
       <r>    3.3378    1.0000 </r>
       <r>    7.0276   -0.0000 </r>
       <r>   11.0095    0.0000 </r>
       <r>   11.0279    0.0000 </r>
       <r>   11.9085    0.0000 </r>
      </set>
      <set comment="kpoint 30">
       <r>   -4.2239    1.0000 </r>
       <r>   -0.5814    1.0000 </r>
       <r>    1.3241    1.0000 </r>
       <r>    3.7330    1.0000 </r>
       <r>    7.4609   -0.0000 </r>
       <r>   10.4144    0.0000 </r>
       <r>   10.7570    0.0000 </r>
       <r>   11.5742    0.0000 </r>
      </set>
      <set comment="kpoint 31">
       <r>   -4.3452    1.0000 </r>
       <r>   -0.2634    1.0000 </r>
       <r>    2.7483    1.0000 </r>
       <r>    2.7483    1.0000 </r>
       <r>    5.9309   -0.0000 </r>
       <r>    6.9477   -0.0000 </r>
       <r>   12.9819    0.0000 </r>
       <r>   12.9819    0.0000 </r>
      </set>
      <set comment="kpoint 32">
       <r>   -3.7345    1.0000 </r>
       <r>   -1.0658    1.0000 </r>
       <r>    2.2260    1.0000 </r>
       <r>    2.6446    1.0000 </r>
       <r>    6.1385   -0.0000 </r>
       <r>    6.9580   -0.0000 </r>
       <r>   13.3000    0.0000 </r>
       <r>   13.3119    0.0000 </r>
      </set>
      <set comment="kpoint 33">
       <r>   -3.0741    1.0000 </r>
       <r>   -1.7709    1.0000 </r>
       <r>    1.4654    1.0000 </r>
       <r>    2.7163    1.0000 </r>
       <r>    6.3079   -0.0000 </r>
       <r>    8.1235    0.0000 </r>
       <r>   13.0340    0.0000 </r>
       <r>   13.1653    0.0000 </r>
      </set>
      <set comment="kpoint 34">
       <r>   -3.0144    1.0000 </r>
       <r>   -1.7998    1.0000 </r>
       <r>    0.9909    1.0000 </r>
       <r>    2.9563    1.0000 </r>
       <r>    6.5804   -0.0000 </r>
       <r>    9.8260    0.0000 </r>
       <r>   12.3618    0.0000 </r>
       <r>   12.8884    0.0000 </r>
      </set>
      <set comment="kpoint 35">
       <r>   -3.1603    1.0000 </r>
       <r>   -1.7820    1.0000 </r>
       <r>    2.4932    1.0000 </r>
       <r>    2.4933    1.0000 </r>
       <r>    5.8943   -0.0000 </r>
       <r>    6.2214   -0.0000 </r>
       <r>   14.6469    0.0000 </r>
       <r>   14.6469    0.0000 </r>
      </set>
      <set comment="kpoint 36">
       <r>   -2.5271    1.0000 </r>
       <r>   -2.4152    1.0000 </r>
       <r>    2.0631    1.0000 </r>
       <r>    2.5179    1.0000 </r>
       <r>    6.0751   -0.0000 </r>
       <r>    6.6490   -0.0000 </r>
       <r>   14.5734    0.0000 </r>
       <r>   14.8023    0.0000 </r>
      </set>
      <set comment="kpoint 37">
       <r>   -5.8587    1.0000 </r>
       <r>    2.2386    1.0000 </r>
       <r>    3.4605    1.0000 </r>
       <r>    4.4457    1.0000 </r>
       <r>    7.5905   -0.0000 </r>
       <r>    8.8066    0.0000 </r>
       <r>    9.5964    0.0000 </r>
       <r>   10.0170    0.0000 </r>
      </set>
      <set comment="kpoint 38">
       <r>   -5.3551    1.0000 </r>
       <r>    0.9391    1.0000 </r>
       <r>    2.9033    1.0000 </r>
       <r>    4.1327    1.0000 </r>
       <r>    7.8937   -0.0000 </r>
       <r>    8.7715    0.0000 </r>
       <r>    9.9257    0.0000 </r>
       <r>   10.1338    0.0000 </r>
      </set>
      <set comment="kpoint 39">
       <r>   -4.7098    1.0000 </r>
       <r>   -0.3804    1.0000 </r>
       <r>    2.6458    1.0000 </r>
       <r>    3.7960    1.0000 </r>
       <r>    7.9160   -0.0000 </r>
       <r>    8.5955    0.0000 </r>
       <r>   10.0198    0.0000 </r>
       <r>   10.9643    0.0000 </r>
      </set>
      <set comment="kpoint 40">
       <r>   -4.1099    1.0000 </r>
       <r>   -1.3415    1.0000 </r>
       <r>    2.5452    1.0000 </r>
       <r>    3.5901    1.0000 </r>
       <r>    7.8833   -0.0000 </r>
       <r>    8.4076    0.0000 </r>
       <r>    9.9564    0.0000 </r>
       <r>   12.4097    0.0000 </r>
      </set>
      <set comment="kpoint 41">
       <r>   -5.1728    1.0000 </r>
       <r>    0.9574    1.0000 </r>
       <r>    2.7567    1.0000 </r>
       <r>    3.4588    1.0000 </r>
       <r>    7.0378   -0.0000 </r>
       <r>    8.5566    0.0000 </r>
       <r>   10.1914    0.0000 </r>
       <r>   11.2271    0.0000 </r>
      </set>
      <set comment="kpoint 42">
       <r>   -4.5667    1.0000 </r>
       <r>   -0.1053    1.0000 </r>
       <r>    2.1890    1.0000 </r>
       <r>    3.1526    1.0000 </r>
       <r>    7.3957   -0.0000 </r>
       <r>    8.9660    0.0000 </r>
       <r>    9.8794    0.0000 </r>
       <r>   11.6144    0.0000 </r>
      </set>
      <set comment="kpoint 43">
       <r>   -3.9081    1.0000 </r>
       <r>   -1.0942    1.0000 </r>
       <r>    1.8073    1.0000 </r>
       <r>    3.0008    1.0000 </r>
       <r>    7.5277   -0.0000 </r>
       <r>    9.4997    0.0000 </r>
       <r>   10.3079    0.0000 </r>
       <r>   11.5707    0.0000 </r>
      </set>
      <set comment="kpoint 44">
       <r>   -3.6486    1.0000 </r>
       <r>   -1.4347    1.0000 </r>
       <r>    1.5815    1.0000 </r>
       <r>    3.0884    1.0000 </r>
       <r>    7.7362   -0.0000 </r>
       <r>    9.2376    0.0000 </r>
       <r>   11.4580    0.0000 </r>
       <r>   11.9758    0.0000 </r>
      </set>
      <set comment="kpoint 45">
       <r>   -4.1428    1.0000 </r>
       <r>   -0.7611    1.0000 </r>
       <r>    1.5743    1.0000 </r>
       <r>    3.3778    1.0000 </r>
       <r>    8.0890    0.0000 </r>
       <r>    9.0513    0.0000 </r>
       <r>   10.7600    0.0000 </r>
       <r>   11.3931    0.0000 </r>
      </set>
      <set comment="kpoint 46">
       <r>   -4.8048    1.0000 </r>
       <r>    0.2036    1.0000 </r>
       <r>    1.9485    1.0000 </r>
       <r>    3.7838    1.0000 </r>
       <r>    8.5133    0.0000 </r>
       <r>    8.6383    0.0000 </r>
       <r>    9.8904    0.0000 </r>
       <r>   10.9391    0.0000 </r>
      </set>
      <set comment="kpoint 47">
       <r>   -4.2384    1.0000 </r>
       <r>   -0.3982    1.0000 </r>
       <r>    2.2891    1.0000 </r>
       <r>    2.6742    1.0000 </r>
       <r>    6.6874   -0.0000 </r>
       <r>    7.5394   -0.0000 </r>
       <r>   11.5547    0.0000 </r>
       <r>   12.9481    0.0000 </r>
      </set>
      <set comment="kpoint 48">
       <r>   -3.5710    1.0000 </r>
       <r>   -1.2081    1.0000 </r>
       <r>    1.6598    1.0000 </r>
       <r>    2.4996    1.0000 </r>
       <r>    7.0308   -0.0000 </r>
       <r>    8.3403    0.0000 </r>
       <r>   11.2085    0.0000 </r>
       <r>   13.3055    0.0000 </r>
      </set>
      <set comment="kpoint 49">
       <r>   -3.1134    1.0000 </r>
       <r>   -1.6963    1.0000 </r>
       <r>    1.1496    1.0000 </r>
       <r>    2.6134    1.0000 </r>
       <r>    7.2426   -0.0000 </r>
       <r>    9.8945    0.0000 </r>
       <r>   10.9104    0.0000 </r>
       <r>   12.4942    0.0000 </r>
      </set>
      <set comment="kpoint 50">
       <r>   -3.4924    1.0000 </r>
       <r>   -1.3018    1.0000 </r>
       <r>    1.0474    1.0000 </r>
       <r>    2.9304    1.0000 </r>
       <r>    7.6072   -0.0000 </r>
       <r>   10.3010    0.0000 </r>
       <r>   11.0218    0.0000 </r>
       <r>   11.9079    0.0000 </r>
      </set>
      <set comment="kpoint 51">
       <r>   -3.0891    1.0000 </r>
       <r>   -1.7804    1.0000 </r>
       <r>    2.1012    1.0000 </r>
       <r>    2.2212    1.0000 </r>
       <r>    6.6220   -0.0000 </r>
       <r>    6.8930   -0.0000 </r>
       <r>   13.0704    0.0000 </r>
       <r>   14.4575    0.0000 </r>
      </set>
      <set comment="kpoint 52">
       <r>   -2.5958    1.0000 </r>
       <r>   -2.2192    1.0000 </r>
       <r>    1.4572    1.0000 </r>
       <r>    2.2921    1.0000 </r>
       <r>    6.9010   -0.0000 </r>
       <r>    8.1344    0.0000 </r>
       <r>   12.6237    0.0000 </r>
       <r>   12.8519    0.0000 </r>
      </set>
      <set comment="kpoint 53">
       <r>   -3.9350    1.0000 </r>
       <r>   -0.7849    1.0000 </r>
       <r>    1.5476    1.0000 </r>
       <r>    2.6984    1.0000 </r>
       <r>    8.3233    0.0000 </r>
       <r>    8.9749    0.0000 </r>
       <r>    9.5076    0.0000 </r>
       <r>   12.8484    0.0000 </r>
      </set>
      <set comment="kpoint 54">
       <r>   -3.3135    1.0000 </r>
       <r>   -1.4736    1.0000 </r>
       <r>    1.2720    1.0000 </r>
       <r>    2.3852    1.0000 </r>
       <r>    8.6981    0.0000 </r>
       <r>    9.0420    0.0000 </r>
       <r>   10.2990    0.0000 </r>
       <r>   12.1437    0.0000 </r>
      </set>
      <set comment="kpoint 55">
       <r>   -2.9087    1.0000 </r>
       <r>   -1.8250    1.0000 </r>
       <r>    1.5005    1.0000 </r>
       <r>    1.8769    1.0000 </r>
       <r>    8.2445    0.0000 </r>
       <r>    8.4542    0.0000 </r>
       <r>   10.8051    0.0000 </r>
       <r>   12.3784    0.0000 </r>
      </set>
      <set comment="kpoint 56">
       <r>   -2.7141    1.0000 </r>
       <r>   -1.9865    1.0000 </r>
       <r>    1.2278    1.0000 </r>
       <r>    1.9125    1.0000 </r>
       <r>    8.5920    0.0000 </r>
       <r>    9.8685    0.0000 </r>
       <r>   10.5741    0.0000 </r>
       <r>   10.5842    0.0000 </r>
      </set>
     </set>
    </set>
   </array>
  </eigenvalues>
  <separator name="orbital magnetization" >
   <v name="MAGDIPOLOUT">      0.00000000      0.00000000      0.00000000</v>
  </separator>
  <dos>
   <i name="efermi">      5.32973375 </i>
   <total>
    <array>
     <dimension dim="1">gridpoints</dimension>
     <dimension dim="2">spin</dimension>
     <field>energy</field>
     <field>total</field>
     <field>integrated</field>
     <set>
      <set comment="spin 1">
       <r>    -7.6272     0.0000     0.0000 </r>
       <r>    -7.5489     0.0000     0.0000 </r>
       <r>    -7.4706     0.0000     0.0000 </r>
       <r>    -7.3922    -0.0000    -0.0000 </r>
       <r>    -7.3139    -0.0000    -0.0000 </r>
       <r>    -7.2356    -0.0000    -0.0000 </r>
       <r>    -7.1573    -0.0000    -0.0000 </r>
       <r>    -7.0789    -0.0000    -0.0000 </r>
       <r>    -7.0006    -0.0000    -0.0000 </r>
       <r>    -6.9223    -0.0000    -0.0000 </r>
       <r>    -6.8440    -0.0000    -0.0000 </r>
       <r>    -6.7656    -0.0001    -0.0000 </r>
       <r>    -6.6873    -0.0009    -0.0001 </r>
       <r>    -6.6090    -0.0014    -0.0002 </r>
       <r>    -6.5307     0.0148     0.0010 </r>
       <r>    -6.4523     0.1067     0.0093 </r>
       <r>    -6.3740     0.1388     0.0202 </r>
       <r>    -6.2957     0.0969     0.0278 </r>
       <r>    -6.2174     0.2171     0.0448 </r>
       <r>    -6.1390     0.3740     0.0741 </r>
       <r>    -6.0607     0.1926     0.0892 </r>
       <r>    -5.9824     0.0530     0.0933 </r>
       <r>    -5.9041     0.3229     0.1186 </r>
       <r>    -5.8257     0.5138     0.1589 </r>
       <r>    -5.7474     0.2968     0.1821 </r>
       <r>    -5.6691     0.3449     0.2091 </r>
       <r>    -5.5908     0.4072     0.2410 </r>
       <r>    -5.5124     0.1782     0.2550 </r>
       <r>    -5.4341     0.1497     0.2667 </r>
       <r>    -5.3558     0.6852     0.3204 </r>
       <r>    -5.2775     0.7626     0.3801 </r>
       <r>    -5.1991     0.2756     0.4017 </r>
       <r>    -5.1208     0.4829     0.4395 </r>
       <r>    -5.0425     0.5626     0.4836 </r>
       <r>    -4.9642     0.2635     0.5042 </r>
       <r>    -4.8858     0.1669     0.5173 </r>
       <r>    -4.8075     0.6488     0.5681 </r>
       <r>    -4.7292     0.9415     0.6419 </r>
       <r>    -4.6509     0.8614     0.7093 </r>
       <r>    -4.5725     0.6454     0.7599 </r>
       <r>    -4.4942     0.5574     0.8035 </r>
       <r>    -4.4159     0.5037     0.8430 </r>
       <r>    -4.3376     0.4403     0.8775 </r>
       <r>    -4.2592     0.3947     0.9084 </r>
       <r>    -4.1809     1.3080     1.0108 </r>
       <r>    -4.1026     1.7509     1.1480 </r>
       <r>    -4.0243     0.6541     1.1992 </r>
       <r>    -3.9459     0.5089     1.2391 </r>
       <r>    -3.8676     1.0397     1.3205 </r>
       <r>    -3.7893     0.3437     1.3474 </r>
       <r>    -3.7110     0.2692     1.3685 </r>
       <r>    -3.6326     0.8871     1.4380 </r>
       <r>    -3.5543     1.3968     1.5474 </r>
       <r>    -3.4760     0.9056     1.6183 </r>
       <r>    -3.3977     0.1948     1.6336 </r>
       <r>    -3.3193     0.3741     1.6629 </r>
       <r>    -3.2410     0.4236     1.6960 </r>
       <r>    -3.1627     0.2877     1.7186 </r>
       <r>    -3.0844     1.0273     1.7990 </r>
       <r>    -3.0060     0.8540     1.8659 </r>
       <r>    -2.9277     0.2920     1.8888 </r>
       <r>    -2.8494     0.2222     1.9062 </r>
       <r>    -2.7711     0.0974     1.9138 </r>
       <r>    -2.6927     0.2479     1.9332 </r>
       <r>    -2.6144     0.3287     1.9590 </r>
       <r>    -2.5361     0.3524     1.9866 </r>
       <r>    -2.4578     0.2158     2.0035 </r>
       <r>    -2.3794     0.1336     2.0140 </r>
       <r>    -2.3011     0.0631     2.0189 </r>
       <r>    -2.2228     0.2067     2.0351 </r>
       <r>    -2.1445     0.2203     2.0524 </r>
       <r>    -2.0661     0.0383     2.0554 </r>
       <r>    -1.9878     0.1918     2.0704 </r>
       <r>    -1.9095     0.1969     2.0858 </r>
       <r>    -1.8311     0.4096     2.1179 </r>
       <r>    -1.7528     1.0910     2.2033 </r>
       <r>    -1.6745     0.9272     2.2760 </r>
       <r>    -1.5962     0.3072     2.3000 </r>
       <r>    -1.5178     0.5011     2.3393 </r>
       <r>    -1.4395     1.5353     2.4595 </r>
       <r>    -1.3612     1.6819     2.5913 </r>
       <r>    -1.2829     1.2082     2.6859 </r>
       <r>    -1.2045     0.8226     2.7503 </r>
       <r>    -1.1262     1.0000     2.8286 </r>
       <r>    -1.0479     1.2070     2.9232 </r>
       <r>    -0.9696     0.4799     2.9608 </r>
       <r>    -0.8912    -0.0525     2.9567 </r>
       <r>    -0.8129     0.5780     3.0019 </r>
       <r>    -0.7346     1.2960     3.1034 </r>
       <r>    -0.6563     0.6268     3.1525 </r>
       <r>    -0.5779     0.3309     3.1784 </r>
       <r>    -0.4996     0.1875     3.1931 </r>
       <r>    -0.4213     0.4408     3.2277 </r>
       <r>    -0.3430     0.8611     3.2951 </r>
       <r>    -0.2646     0.3157     3.3198 </r>
       <r>    -0.1863     0.0422     3.3231 </r>
       <r>    -0.1080     0.4018     3.3546 </r>
       <r>    -0.0297     0.5945     3.4012 </r>
       <r>     0.0487     0.5676     3.4456 </r>
       <r>     0.1270     0.3001     3.4691 </r>
       <r>     0.2053     0.2107     3.4857 </r>
       <r>     0.2836     0.1857     3.5002 </r>
       <r>     0.3620     0.1470     3.5117 </r>
       <r>     0.4403     0.5534     3.5550 </r>
       <r>     0.5186     0.5963     3.6018 </r>
       <r>     0.5969     0.1465     3.6132 </r>
       <r>     0.6753    -0.0246     3.6113 </r>
       <r>     0.7536    -0.0217     3.6096 </r>
       <r>     0.8319    -0.0418     3.6063 </r>
       <r>     0.9102     0.3658     3.6350 </r>
       <r>     0.9886     1.0527     3.7174 </r>
       <r>     1.0669     0.7224     3.7740 </r>
       <r>     1.1452     0.7355     3.8316 </r>
       <r>     1.2235     1.2052     3.9260 </r>
       <r>     1.3019     1.0445     4.0078 </r>
       <r>     1.3802     0.4868     4.0460 </r>
       <r>     1.4585     0.8571     4.1131 </r>
       <r>     1.5368     1.7484     4.2500 </r>
       <r>     1.6152     1.7966     4.3907 </r>
       <r>     1.6935     0.9531     4.4654 </r>
       <r>     1.7718     0.5320     4.5071 </r>
       <r>     1.8501     0.9560     4.5819 </r>
       <r>     1.9285     0.9430     4.6558 </r>
       <r>     2.0068     0.9545     4.7306 </r>
       <r>     2.0851     1.0416     4.8121 </r>
       <r>     2.1634     1.2466     4.9098 </r>
       <r>     2.2418     1.9162     5.0599 </r>
       <r>     2.3201     1.4277     5.1717 </r>
       <r>     2.3984     0.6833     5.2252 </r>
       <r>     2.4767     0.8031     5.2881 </r>
       <r>     2.5551     1.6503     5.4174 </r>
       <r>     2.6334     2.2235     5.5915 </r>
       <r>     2.7117     2.3014     5.7718 </r>
       <r>     2.7900     1.2163     5.8671 </r>
       <r>     2.8684     0.4012     5.8985 </r>
       <r>     2.9467     1.2513     5.9965 </r>
       <r>     3.0250     1.9930     6.1526 </r>
       <r>     3.1033     1.9184     6.3028 </r>
       <r>     3.1817     1.1770     6.3950 </r>
       <r>     3.2600     0.4099     6.4271 </r>
       <r>     3.3383     0.9949     6.5051 </r>
       <r>     3.4166     1.9845     6.6605 </r>
       <r>     3.4950     1.9651     6.8144 </r>
       <r>     3.5733     1.5528     6.9360 </r>
       <r>     3.6516     0.9555     7.0109 </r>
       <r>     3.7299     0.6903     7.0649 </r>
       <r>     3.8083     1.6600     7.1950 </r>
       <r>     3.8866     1.5329     7.3150 </r>
       <r>     3.9649     0.6648     7.3671 </r>
       <r>     4.0432     0.3787     7.3968 </r>
       <r>     4.1216     1.0237     7.4769 </r>
       <r>     4.1999     1.5926     7.6017 </r>
       <r>     4.2782     0.8230     7.6661 </r>
       <r>     4.3565     0.3073     7.6902 </r>
       <r>     4.4349     0.7145     7.7462 </r>
       <r>     4.5132     0.9108     7.8175 </r>
       <r>     4.5915     0.5735     7.8624 </r>
       <r>     4.6699     0.1739     7.8761 </r>
       <r>     4.7482     0.1879     7.8908 </r>
       <r>     4.8265     0.4673     7.9274 </r>
       <r>     4.9048     0.3115     7.9518 </r>
       <r>     4.9832     0.0201     7.9533 </r>
       <r>     5.0615     0.1059     7.9616 </r>
       <r>     5.1398     0.3186     7.9866 </r>
       <r>     5.2181     0.1425     7.9978 </r>
       <r>     5.2965     0.0229     7.9996 </r>
       <r>     5.3748     0.0079     8.0002 </r>
       <r>     5.4531    -0.0017     8.0000 </r>
       <r>     5.5314    -0.0005     8.0000 </r>
       <r>     5.6098    -0.0000     8.0000 </r>
       <r>     5.6881    -0.0009     7.9999 </r>
       <r>     5.7664    -0.0055     7.9995 </r>
       <r>     5.8447     0.0206     8.0011 </r>
       <r>     5.9231     0.1119     8.0099 </r>
       <r>     6.0014     0.0942     8.0172 </r>
       <r>     6.0797     0.1723     8.0307 </r>
       <r>     6.1580     0.3626     8.0591 </r>
       <r>     6.2364     0.2809     8.0811 </r>
       <r>     6.3147     0.3448     8.1082 </r>
       <r>     6.3930     0.3897     8.1387 </r>
       <r>     6.4713     0.2341     8.1570 </r>
       <r>     6.5497     0.1613     8.1696 </r>
       <r>     6.6280     0.7413     8.2277 </r>
       <r>     6.7063     0.9571     8.3027 </r>
       <r>     6.7846     0.5348     8.3446 </r>
       <r>     6.8630     0.5128     8.3847 </r>
       <r>     6.9413     1.1790     8.4771 </r>
       <r>     7.0196     1.3775     8.5850 </r>
       <r>     7.0979     1.1152     8.6723 </r>
       <r>     7.1763     0.7385     8.7302 </r>
       <r>     7.2546     1.0934     8.8158 </r>
       <r>     7.3329     1.2788     8.9160 </r>
       <r>     7.4112     1.1839     9.0087 </r>
       <r>     7.4896     1.5077     9.1268 </r>
       <r>     7.5679     2.1171     9.2926 </r>
       <r>     7.6462     1.5917     9.4173 </r>
       <r>     7.7245     0.7853     9.4788 </r>
       <r>     7.8029     0.8469     9.5451 </r>
       <r>     7.8812     1.7360     9.6811 </r>
       <r>     7.9595     1.9358     9.8327 </r>
       <r>     8.0378     0.6838     9.8863 </r>
       <r>     8.1162     1.2610     9.9850 </r>
       <r>     8.1945     1.2193    10.0805 </r>
       <r>     8.2728     0.6951    10.1350 </r>
       <r>     8.3511     1.0150    10.2145 </r>
       <r>     8.4295     1.3032    10.3166 </r>
       <r>     8.5078     2.2981    10.4966 </r>
       <r>     8.5861     3.0768    10.7376 </r>
       <r>     8.6644     2.0402    10.8973 </r>
       <r>     8.7428     1.5545    11.0191 </r>
       <r>     8.8211     1.9419    11.1712 </r>
       <r>     8.8994     1.3986    11.2808 </r>
       <r>     8.9777     1.8702    11.4272 </r>
       <r>     9.0561     2.3354    11.6102 </r>
       <r>     9.1344     1.3196    11.7135 </r>
       <r>     9.2127     0.6315    11.7630 </r>
       <r>     9.2910     0.9772    11.8395 </r>
       <r>     9.3694     0.8104    11.9030 </r>
       <r>     9.4477     0.8378    11.9686 </r>
       <r>     9.5260     1.7024    12.1020 </r>
       <r>     9.6043     1.5134    12.2205 </r>
       <r>     9.6827     0.7077    12.2759 </r>
       <r>     9.7610     0.3118    12.3004 </r>
       <r>     9.8393     0.9143    12.3720 </r>
       <r>     9.9176     2.8548    12.5956 </r>
       <r>     9.9960     2.8439    12.8183 </r>
       <r>    10.0743     1.6915    12.9508 </r>
       <r>    10.1526     1.3684    13.0580 </r>
       <r>    10.2309     1.1150    13.1453 </r>
       <r>    10.3093     1.4620    13.2598 </r>
       <r>    10.3876     1.3140    13.3628 </r>
       <r>    10.4659     0.6884    13.4167 </r>
       <r>    10.5442     0.8255    13.4813 </r>
       <r>    10.6226     0.8833    13.5505 </r>
       <r>    10.7009     0.3939    13.5814 </r>
       <r>    10.7792     0.7822    13.6426 </r>
       <r>    10.8576     0.9703    13.7186 </r>
       <r>    10.9359     1.3058    13.8209 </r>
       <r>    11.0142     1.9195    13.9713 </r>
       <r>    11.0925     1.0032    14.0498 </r>
       <r>    11.1709     0.2869    14.0723 </r>
       <r>    11.2492     0.8479    14.1387 </r>
       <r>    11.3275     1.0439    14.2205 </r>
       <r>    11.4058     1.4176    14.3315 </r>
       <r>    11.4842     1.4414    14.4444 </r>
       <r>    11.5625     1.6042    14.5701 </r>
       <r>    11.6408     1.7994    14.7110 </r>
       <r>    11.7191     0.7787    14.7720 </r>
       <r>    11.7975     0.2022    14.7878 </r>
       <r>    11.8758     0.6151    14.8360 </r>
       <r>    11.9541     1.1512    14.9262 </r>
       <r>    12.0324     0.7625    14.9859 </r>
       <r>    12.1108     0.5649    15.0301 </r>
       <r>    12.1891     0.7177    15.0864 </r>
       <r>    12.2674     0.1423    15.0975 </r>
       <r>    12.3457     0.2927    15.1204 </r>
       <r>    12.4241     1.0527    15.2029 </r>
       <r>    12.5024     0.9922    15.2806 </r>
       <r>    12.5807     0.7050    15.3358 </r>
       <r>    12.6590     0.4803    15.3734 </r>
       <r>    12.7374     0.0733    15.3792 </r>
       <r>    12.8157     0.1958    15.3945 </r>
       <r>    12.8940     0.9400    15.4681 </r>
       <r>    12.9723     1.2724    15.5678 </r>
       <r>    13.0507     1.0096    15.6469 </r>
       <r>    13.1290     0.6112    15.6947 </r>
       <r>    13.2073     0.3564    15.7227 </r>
       <r>    13.2856     0.9513    15.7972 </r>
       <r>    13.3640     1.2710    15.8967 </r>
       <r>    13.4423     0.2395    15.9155 </r>
       <r>    13.5206    -0.0621    15.9106 </r>
       <r>    13.5989    -0.0097    15.9099 </r>
       <r>    13.6773    -0.0003    15.9098 </r>
       <r>    13.7556    -0.0000    15.9098 </r>
       <r>    13.8339    -0.0000    15.9098 </r>
       <r>    13.9122    -0.0000    15.9098 </r>
       <r>    13.9906    -0.0000    15.9098 </r>
       <r>    14.0689    -0.0000    15.9098 </r>
       <r>    14.1472    -0.0000    15.9098 </r>
       <r>    14.2255    -0.0011    15.9098 </r>
       <r>    14.3039    -0.0109    15.9089 </r>
       <r>    14.3822     0.0202    15.9105 </r>
       <r>    14.4605     0.2235    15.9280 </r>
       <r>    14.5388     0.2704    15.9492 </r>
       <r>    14.6172     0.2181    15.9662 </r>
       <r>    14.6955     0.1710    15.9796 </r>
       <r>    14.7738     0.1017    15.9876 </r>
       <r>    14.8521     0.1298    15.9978 </r>
       <r>    14.9305     0.0366    16.0006 </r>
       <r>    15.0088    -0.0066    16.0001 </r>
       <r>    15.0871    -0.0014    16.0000 </r>
       <r>    15.1654    -0.0000    16.0000 </r>
       <r>    15.2438    -0.0000    16.0000 </r>
       <r>    15.3221    -0.0000    16.0000 </r>
       <r>    15.4004    -0.0000    16.0000 </r>
       <r>    15.4787    -0.0000    16.0000 </r>
       <r>    15.5571     0.0000    16.0000 </r>
       <r>    15.6354     0.0000    16.0000 </r>
       <r>    15.7137     0.0000    16.0000 </r>
       <r>    15.7920     0.0000    16.0000 </r>
       <r>    15.8704     0.0000    16.0000 </r>
      </set>
     </set>
    </array>
   </total>
  </dos>
 </calculation>
 <structure name="finalpos" >
  <crystal>
   <varray name="basis" >
    <v>       2.73463547       2.73463547       0.00000000 </v>
    <v>       0.00000000       2.73463547       2.73463547 </v>
    <v>       2.73463547       0.00000000       2.73463547 </v>
   </varray>
   <i name="volume">     40.90047253 </i>
   <varray name="rec_basis" >
    <v>       0.18283973       0.18283973      -0.18283973 </v>
    <v>      -0.18283973       0.18283973       0.18283973 </v>
    <v>       0.18283973      -0.18283973       0.18283973 </v>
   </varray>
  </crystal>
  <varray name="positions" >
   <v>       0.00000000       0.00000000       0.00000000 </v>
   <v>       0.25000000       0.25000000       0.25000000 </v>
  </varray>
 </structure>
</modeling>
