Silicon                                 
           1
     2.715000    2.715000    0.000000
     0.000000    2.715000    2.715000
     2.715000    0.000000    2.715000
   Si
     2
Direct configuration=     1
   0.00000000  0.00000000  0.00000000
   0.25000000  0.25000000  0.25000000
Silicon                                 
           1
     2.748093    2.748093    0.000000
     0.000000    2.748093    2.748093
     2.748093    0.000000    2.748093
   Si
     2
Direct configuration=     2
   0.00000000  0.00000000  0.00000000
   0.25000000  0.25000000  0.25000000
Silicon                                 
           1
     2.734635    2.734635    0.000000
     0.000000    2.734635    2.734635
     2.734635    0.000000    2.734635
   Si
     2
Direct configuration=     3
   0.00000000  0.00000000  0.00000000
   0.25000000  0.25000000  0.25000000
