   1   1   0   0
  0.1000000E+01  0.1000000E-09  0.1000000E-09  0.1000000E-09  0.5000000E-15
  1.000000000000000E-004
  CAR 
 Silicon                                 
     30.32574359     -5.16586463  301      9.31653509      1.00000000
     -5.166  0.0000E+00  0.0000E+00
     -5.048  0.0000E+00  0.0000E+00
     -4.929  0.0000E+00  0.0000E+00
     -4.811  0.0000E+00  0.0000E+00
     -4.693  0.0000E+00  0.0000E+00
     -4.574  0.0000E+00  0.0000E+00
     -4.456  0.0000E+00  0.0000E+00
     -4.338  0.0000E+00  0.0000E+00
     -4.219  0.0000E+00  0.0000E+00
     -4.101  0.1830E-15  0.2165E-16
     -3.983  0.2478E-10  0.2931E-11
     -3.865  0.2175E-06  0.2574E-07
     -3.746  0.1305E-03  0.1546E-04
     -3.628  0.5934E-02  0.7175E-03
     -3.510  0.2473E-01  0.3643E-02
     -3.391  0.1100E-01  0.4944E-02
     -3.273  0.4743E-03  0.5000E-02
     -3.155  0.1620E-05  0.5000E-02
     -3.036  0.3860E-09  0.5000E-02
     -2.918  0.6044E-14  0.5000E-02
     -2.800  0.0000E+00  0.5000E-02
     -2.681  0.0000E+00  0.5000E-02
     -2.563  0.0000E+00  0.5000E-02
     -2.445  0.0000E+00  0.5000E-02
     -2.327  0.0000E+00  0.5000E-02
     -2.208  0.0000E+00  0.5000E-02
     -2.090  0.0000E+00  0.5000E-02
     -1.972  0.0000E+00  0.5000E-02
     -1.853  0.0000E+00  0.5000E-02
     -1.735  0.0000E+00  0.5000E-02
     -1.617  0.0000E+00  0.5000E-02
     -1.498  0.0000E+00  0.5000E-02
     -1.380  0.0000E+00  0.5000E-02
     -1.262  0.0000E+00  0.5000E-02
     -1.143  0.4279E-12  0.5000E-02
     -1.025  0.1335E-07  0.5000E-02
     -0.907  0.2769E-04  0.5003E-02
     -0.789  0.4108E-02  0.5489E-02
     -0.670  0.5068E-01  0.1148E-01
     -0.552  0.6355E-01  0.1900E-01
     -0.434  0.8333E-02  0.1999E-01
     -0.315  0.9469E-04  0.2000E-01
     -0.197  0.7875E-07  0.2000E-01
     -0.079  0.4402E-11  0.2000E-01
      0.040  0.1408E-16  0.2000E-01
      0.158  0.0000E+00  0.2000E-01
      0.276  0.0000E+00  0.2000E-01
      0.394  0.0000E+00  0.2000E-01
      0.513  0.0000E+00  0.2000E-01
      0.631  0.0000E+00  0.2000E-01
      0.749  0.0000E+00  0.2000E-01
      0.868  0.0000E+00  0.2000E-01
      0.986  0.0000E+00  0.2000E-01
      1.104  0.0000E+00  0.2000E-01
      1.223  0.0000E+00  0.2000E-01
      1.341  0.0000E+00  0.2000E-01
      1.459  0.0000E+00  0.2000E-01
      1.578  0.0000E+00  0.2000E-01
      1.696  0.2658E-13  0.2000E-01
      1.814  0.1559E-08  0.2000E-01
      1.932  0.6021E-05  0.2000E-01
      2.051  0.1627E-02  0.2019E-01
      2.169  0.3499E-01  0.2433E-01
      2.287  0.7341E-01  0.3302E-01
      2.406  0.1642E-01  0.3496E-01
      2.524  0.3343E-03  0.3500E-01
      2.642  0.5137E-06  0.3500E-01
      2.761  0.5381E-10  0.3500E-01
      2.879  0.3660E-15  0.3500E-01
      2.997  0.0000E+00  0.3500E-01
      3.116  0.0000E+00  0.3500E-01
      3.234  0.0000E+00  0.3500E-01
      3.352  0.0000E+00  0.3500E-01
      3.470  0.0000E+00  0.3500E-01
      3.589  0.0000E+00  0.3500E-01
      3.707  0.0000E+00  0.3500E-01
      3.825  0.0000E+00  0.3500E-01
      3.944  0.0000E+00  0.3500E-01
      4.062  0.0000E+00  0.3500E-01
      4.180  0.0000E+00  0.3500E-01
      4.299  0.0000E+00  0.3500E-01
      4.417  0.0000E+00  0.3500E-01
      4.535  0.3455E-13  0.3500E-01
      4.653  0.1493E-08  0.3500E-01
      4.772  0.4269E-05  0.3500E-01
      4.890  0.8627E-03  0.3510E-01
      5.008  0.1416E-01  0.3678E-01
      5.127  0.2316E-01  0.3952E-01
      5.245  0.4008E-02  0.3999E-01
      5.363  0.6180E-04  0.4000E-01
      5.482  0.1498E-03  0.4002E-01
      5.600  0.1073E-01  0.4129E-01
      5.718  0.6776E-01  0.4930E-01
      5.837  0.4512E-01  0.5464E-01
      5.955  0.3014E-02  0.5500E-01
      6.073  0.1647E-04  0.5500E-01
      6.191  0.6387E-08  0.5500E-01
      6.310  0.1641E-12  0.5500E-01
      6.428  0.0000E+00  0.5500E-01
      6.546  0.0000E+00  0.5500E-01
      6.665  0.0000E+00  0.5500E-01
      6.783  0.0000E+00  0.5500E-01
      6.901  0.0000E+00  0.5500E-01
      7.020  0.7038E-17  0.5500E-01
      7.138  0.2017E-11  0.5500E-01
      7.256  0.4359E-07  0.5500E-01
      7.375  0.6308E-04  0.5501E-01
      7.493  0.6627E-02  0.5579E-01
      7.611  0.5946E-01  0.6283E-01
      7.729  0.5531E-01  0.6937E-01
      7.848  0.5287E-02  0.6999E-01
      7.966  0.4260E-04  0.7000E-01
      8.084  0.2473E-07  0.7000E-01
      8.203  0.9581E-12  0.7000E-01
      8.321  0.0000E+00  0.7000E-01
      8.439  0.0000E+00  0.7000E-01
      8.558  0.0000E+00  0.7000E-01
      8.676  0.0000E+00  0.7000E-01
      8.794  0.2209E-12  0.7000E-01
      8.912  0.8031E-08  0.7000E-01
      9.031  0.1937E-04  0.7000E-01
      9.149  0.3321E-02  0.7040E-01
      9.267  0.4684E-01  0.7594E-01
      9.386  0.6654E-01  0.8381E-01
      9.504  0.9943E-02  0.8498E-01
      9.622  0.1303E-03  0.8500E-01
      9.741  0.6220E-06  0.8500E-01
      9.859  0.2845E-03  0.8503E-01
      9.977  0.1240E-01  0.8650E-01
     10.096  0.4969E-01  0.9238E-01
     10.214  0.2127E-01  0.9490E-01
     10.332  0.8799E-03  0.9500E-01
     10.450  0.2874E-05  0.9500E-01
     10.569  0.6541E-09  0.9500E-01
     10.687  0.9779E-14  0.9500E-01
     10.805  0.0000E+00  0.9500E-01
     10.924  0.0000E+00  0.9500E-01
     11.042  0.0000E+00  0.9500E-01
     11.160  0.0000E+00  0.9500E-01
     11.279  0.0000E+00  0.9500E-01
     11.397  0.0000E+00  0.9500E-01
     11.515  0.0000E+00  0.9500E-01
     11.633  0.0000E+00  0.9500E-01
     11.752  0.0000E+00  0.9500E-01
     11.870  0.0000E+00  0.9500E-01
     11.988  0.0000E+00  0.9500E-01
     12.107  0.0000E+00  0.9500E-01
     12.225  0.0000E+00  0.9500E-01
     12.343  0.0000E+00  0.9500E-01
     12.462  0.0000E+00  0.9500E-01
     12.580  0.0000E+00  0.9500E-01
     12.698  0.0000E+00  0.9500E-01
     12.817  0.3613E-15  0.9500E-01
     12.935  0.4866E-10  0.9500E-01
     13.053  0.4292E-06  0.9500E-01
     13.171  0.2587E-03  0.9503E-01
     13.290  0.1182E-01  0.9643E-01
     13.408  0.4942E-01  0.1023E+00
     13.526  0.2207E-01  0.1049E+00
     13.645  0.1140E-02  0.1050E+00
     13.763  0.7049E-02  0.1059E+00
     13.881  0.2511E-01  0.1088E+00
     14.000  0.9574E-02  0.1100E+00
     14.118  0.3491E-03  0.1100E+00
     14.236  0.9964E-06  0.1100E+00
     14.355  0.1973E-09  0.1100E+00
     14.473  0.2562E-14  0.1100E+00
     14.591  0.0000E+00  0.1100E+00
     14.709  0.0000E+00  0.1100E+00
     14.828  0.0000E+00  0.1100E+00
     14.946  0.0000E+00  0.1100E+00
     15.064  0.7348E-12  0.1100E+00
     15.183  0.2019E-07  0.1100E+00
     15.301  0.3699E-04  0.1100E+00
     15.419  0.4870E-02  0.1106E+00
     15.538  0.5380E-01  0.1169E+00
     15.656  0.6086E-01  0.1241E+00
     15.774  0.9116E-02  0.1252E+00
     15.892  0.4465E-01  0.1305E+00
     16.011  0.9867E-01  0.1422E+00
     16.129  0.2333E-01  0.1449E+00
     16.247  0.5051E-03  0.1450E+00
     16.366  0.8295E-06  0.1450E+00
     16.484  0.9317E-10  0.1450E+00
     16.602  0.6757E-15  0.1450E+00
     16.721  0.0000E+00  0.1450E+00
     16.839  0.0000E+00  0.1450E+00
     16.957  0.0000E+00  0.1450E+00
     17.076  0.0000E+00  0.1450E+00
     17.194  0.0000E+00  0.1450E+00
     17.312  0.0000E+00  0.1450E+00
     17.430  0.0000E+00  0.1450E+00
     17.549  0.0000E+00  0.1450E+00
     17.667  0.0000E+00  0.1450E+00
     17.785  0.5161E-16  0.1450E+00
     17.904  0.1077E-10  0.1450E+00
     18.022  0.1427E-06  0.1450E+00
     18.140  0.1337E-03  0.1450E+00
     18.259  0.1041E-01  0.1462E+00
     18.377  0.8777E-01  0.1566E+00
     18.495  0.9851E-01  0.1683E+00
     18.614  0.1428E-01  0.1700E+00
     18.732  0.2087E-03  0.1700E+00
     18.850  0.2407E-06  0.1700E+00
     18.968  0.1920E-10  0.1700E+00
     19.087  0.9854E-16  0.1700E+00
     19.205  0.0000E+00  0.1700E+00
     19.323  0.0000E+00  0.1700E+00
     19.442  0.0000E+00  0.1700E+00
     19.560  0.0000E+00  0.1700E+00
     19.678  0.0000E+00  0.1700E+00
     19.797  0.0000E+00  0.1700E+00
     19.915  0.6393E-12  0.1700E+00
     20.033  0.1815E-07  0.1700E+00
     20.151  0.3434E-04  0.1700E+00
     20.270  0.4663E-02  0.1706E+00
     20.388  0.5300E-01  0.1768E+00
     20.506  0.6157E-01  0.1841E+00
     20.625  0.7449E-02  0.1850E+00
     20.743  0.7753E-04  0.1850E+00
     20.861  0.5882E-07  0.1850E+00
     20.980  0.2994E-11  0.1850E+00
     21.098  0.0000E+00  0.1850E+00
     21.216  0.0000E+00  0.1850E+00
     21.335  0.0000E+00  0.1850E+00
     21.453  0.0000E+00  0.1850E+00
     21.571  0.0000E+00  0.1850E+00
     21.689  0.0000E+00  0.1850E+00
     21.808  0.0000E+00  0.1850E+00
     21.926  0.0000E+00  0.1850E+00
     22.044  0.0000E+00  0.1850E+00
     22.163  0.0000E+00  0.1850E+00
     22.281  0.0000E+00  0.1850E+00
     22.399  0.0000E+00  0.1850E+00
     22.518  0.0000E+00  0.1850E+00
     22.636  0.0000E+00  0.1850E+00
     22.754  0.0000E+00  0.1850E+00
     22.873  0.0000E+00  0.1850E+00
     22.991  0.0000E+00  0.1850E+00
     23.109  0.0000E+00  0.1850E+00
     23.227  0.0000E+00  0.1850E+00
     23.346  0.0000E+00  0.1850E+00
     23.464  0.0000E+00  0.1850E+00
     23.582  0.6546E-15  0.1850E+00
     23.701  0.9199E-10  0.1850E+00
     23.819  0.8583E-06  0.1850E+00
     23.937  0.5656E-03  0.1851E+00
     24.056  0.2926E-01  0.1885E+00
     24.174  0.1427E+00  0.2054E+00
     24.292  0.7680E-01  0.2145E+00
     24.410  0.4246E-02  0.2150E+00
     24.529  0.1982E-04  0.2150E+00
     24.647  0.4508E-04  0.2150E+00
     24.765  0.3383E-02  0.2154E+00
     24.884  0.2229E-01  0.2180E+00
     25.002  0.1546E-01  0.2199E+00
     25.120  0.1079E-02  0.2200E+00
     25.239  0.6185E-05  0.2200E+00
     25.357  0.2519E-08  0.2200E+00
     25.475  0.6805E-13  0.2200E+00
     25.594  0.0000E+00  0.2200E+00
     25.712  0.0000E+00  0.2200E+00
     25.830  0.0000E+00  0.2200E+00
     25.948  0.0000E+00  0.2200E+00
     26.067  0.0000E+00  0.2200E+00
     26.185  0.0000E+00  0.2200E+00
     26.303  0.0000E+00  0.2200E+00
     26.422  0.1408E-16  0.2200E+00
     26.540  0.3556E-11  0.2200E+00
     26.658  0.6701E-07  0.2200E+00
     26.777  0.8478E-04  0.2200E+00
     26.895  0.7833E-02  0.2209E+00
     27.013  0.6246E-01  0.2283E+00
     27.131  0.5197E-01  0.2345E+00
     27.250  0.4409E-02  0.2350E+00
     27.368  0.3121E-04  0.2350E+00
     27.486  0.1584E-07  0.2350E+00
     27.605  0.5348E-12  0.2350E+00
     27.723  0.0000E+00  0.2350E+00
     27.841  0.0000E+00  0.2350E+00
     27.960  0.0000E+00  0.2350E+00
     28.078  0.0000E+00  0.2350E+00
     28.196  0.6046E-14  0.2350E+00
     28.315  0.3860E-09  0.2350E+00
     28.433  0.1620E-05  0.2350E+00
     28.551  0.4743E-03  0.2351E+00
     28.669  0.1100E-01  0.2364E+00
     28.788  0.2473E-01  0.2393E+00
     28.906  0.5934E-02  0.2400E+00
     29.024  0.1305E-03  0.2400E+00
     29.143  0.2175E-06  0.2400E+00
     29.261  0.2478E-10  0.2400E+00
     29.379  0.1830E-15  0.2400E+00
     29.498  0.0000E+00  0.2400E+00
     29.616  0.0000E+00  0.2400E+00
     29.734  0.0000E+00  0.2400E+00
     29.853  0.0000E+00  0.2400E+00
     29.971  0.0000E+00  0.2400E+00
     30.089  0.0000E+00  0.2400E+00
     30.207  0.0000E+00  0.2400E+00
     30.326  0.0000E+00  0.2400E+00
