    1    1   50    1
  0.1000000E+01  0.1000000E-09  0.1000000E-09  0.1000000E-09  0.5000000E-15
  1.000000000000000E-004
  CAR 
 Silicon                                 
      4      4      6
 
  0.1250000E+00  0.1250000E+00  0.1250000E+00  0.1250000E+00
      1         -3.552610   1.000000
      2         13.365263   0.000000
      3         13.365263   0.000000
      4         15.937442   0.000000
      5         24.864222   0.000000
      6         28.712489   0.000000
 
  0.3750000E+00  0.1250000E+00  0.1250000E+00  0.3750000E+00
      1         -0.658205   1.000000
      2          5.696585   1.000000
      3         15.933782   0.000000
      4         18.404795   0.000000
      5         24.130070   0.000000
      6         24.150691   0.000000
 
  0.3750000E+00  0.3750000E+00  0.1250000E+00  0.3750000E+00
      1          2.208442   1.000000
      2          7.607265   1.000000
      3          9.286078   0.666667
      4         15.544139   0.000000
      5         20.396078   0.000000
      6         27.003395   0.000000
 
  0.3750000E+00  0.3750000E+00  0.3750000E+00  0.1250000E+00
      1          5.034572   1.000000
      2         10.050490   0.000000
      3         10.050490   0.000000
      4         13.830169   0.000000
      5         18.350949   0.000000
      6         18.350949   0.000000
