       N       E                     dE             d eps       ncg     rms          rms(c)
DAV:   1     0.222819856216E+03    0.22282E+03   -0.25958E+03    54   0.410E+02
DAV:   2     0.211195916996E+03   -0.11624E+02   -0.54331E+01    48   0.702E+01
DAV:   3     0.210835685118E+03   -0.36023E+00   -0.36023E+00    48   0.105E+01
DAV:   4     0.210834921825E+03   -0.76329E-03   -0.76329E-03    48   0.378E-01
DAV:   5     0.210834916566E+03   -0.52591E-05   -0.52533E-05    42   0.356E-02    0.244E+01
DAV:   6     0.221268903584E+03    0.10434E+02   -0.36275E+00    48   0.161E+01    0.141E+01
DAV:   7     0.225100497364E+03    0.38316E+01   -0.58351E+00    48   0.203E+01    0.262E+00
DAV:   8     0.225064578920E+03   -0.35918E-01   -0.11772E-02    48   0.103E+00    0.291E+00
DAV:   9     0.225055961639E+03   -0.86173E-02   -0.11146E-04    48   0.981E-02    0.297E+00
DAV:  10     0.225234092371E+03    0.17813E+00   -0.67996E-02    48   0.180E+00    0.713E-01
DAV:  11     0.225237712337E+03    0.36200E-02   -0.93600E-04    48   0.241E-01    0.530E-01
DAV:  12     0.225244897970E+03    0.71856E-02   -0.17996E-03    48   0.283E-01    0.387E-01
DAV:  13     0.225248380173E+03    0.34822E-02   -0.99819E-04    48   0.192E-01    0.257E-01
DAV:  14     0.225251012030E+03    0.26319E-02   -0.21243E-03    48   0.283E-01    0.707E-02
DAV:  15     0.225251221760E+03    0.20973E-03   -0.20163E-04    48   0.869E-02    0.150E-02
DAV:  16     0.225251231648E+03    0.98876E-05   -0.17949E-05    42   0.260E-02
   1 F= 0.22525123E+03 E0= 0.22526087E+03  d E =0.225251E+03
       N       E                     dE             d eps       ncg     rms          rms(c)
DAV:   1     0.423391076275E+02   -0.18291E+03   -0.26133E+02    54   0.961E+00    0.850E+00
DAV:   2     0.470495848509E+02    0.47105E+01   -0.16454E+01    48   0.635E+00    0.521E+00
DAV:   3     0.522644715112E+02    0.52149E+01   -0.37643E-01    48   0.933E-01    0.108E+00
DAV:   4     0.543984123038E+02    0.21339E+01   -0.22695E-02    48   0.293E-01    0.481E-01
DAV:   5     0.546766794170E+02    0.27827E+00   -0.22586E-02    54   0.312E-01    0.135E-01
DAV:   6     0.546863964512E+02    0.97170E-02   -0.23403E-04    48   0.324E-02    0.900E-02
DAV:   7     0.546890532885E+02    0.26568E-02   -0.11102E-03    48   0.777E-02    0.321E-02
DAV:   8     0.546896633055E+02    0.61002E-03   -0.10610E-05    48   0.720E-03    0.167E-02
DAV:   9     0.546898356495E+02    0.17234E-03   -0.11524E-05    48   0.804E-03    0.151E-04
DAV:  10     0.546898355639E+02   -0.85525E-07   -0.25839E-08    42   0.220E-04
   2 F= 0.54689836E+02 E0= 0.54711588E+02  d E =-.170561E+03
       N       E                     dE             d eps       ncg     rms          rms(c)
DAV:   1     0.519267233495E+02   -0.27631E+01   -0.87610E-03    48   0.219E-01    0.561E-03
DAV:   2     0.519267263746E+02    0.30252E-05   -0.34971E-05    48   0.578E-03
   3 F= 0.51926726E+02 E0= 0.51948114E+02  d E =-.173325E+03
       N       E                     dE             d eps       ncg     rms          rms(c)
DAV:   1     0.490787534153E+02   -0.28480E+01   -0.10804E-02    48   0.249E-01    0.642E-03
DAV:   2     0.490787564766E+02    0.30613E-05   -0.46632E-05    48   0.680E-03
   4 F= 0.49078756E+02 E0= 0.49099883E+02  d E =-.176172E+03
       N       E                     dE             d eps       ncg     rms          rms(c)
DAV:   1     0.199693474631E+02   -0.29109E+02   -0.82730E+00    48   0.841E+00    0.578E-01
DAV:   2     0.199735710978E+02    0.42236E-02   -0.47427E-02    48   0.466E-01    0.354E-01
DAV:   3     0.200017692734E+02    0.28198E-01   -0.15725E-02    48   0.325E-01    0.828E-02
DAV:   4     0.200012014250E+02   -0.56785E-03   -0.11421E-03    48   0.768E-02    0.443E-02
DAV:   5     0.200015468325E+02    0.34541E-03   -0.49417E-05    48   0.212E-02    0.277E-02
DAV:   6     0.200017533292E+02    0.20650E-03   -0.35989E-05    48   0.183E-02    0.108E-02
DAV:   7     0.200017753547E+02    0.22025E-04   -0.53885E-06    42   0.701E-03    0.533E-03
DAV:   8     0.200017802998E+02    0.49452E-05   -0.36195E-06    42   0.580E-03
   5 F= 0.20001780E+02 E0= 0.20037270E+02  d E =-.205249E+03
       N       E                     dE             d eps       ncg     rms          rms(c)
DAV:   1    -0.162901622888E+00   -0.20165E+02   -0.10264E+02    48   0.339E+01    0.399E+00
DAV:   2     0.997129804628E+00    0.11600E+01   -0.41466E-01    48   0.267E+00    0.241E+00
DAV:   3     0.172747101413E+01    0.73034E+00   -0.94625E-01    48   0.395E+00    0.128E-01
DAV:   4     0.172563535943E+01   -0.18357E-02   -0.77496E-03    48   0.348E-01    0.410E-02
DAV:   5     0.172537908539E+01   -0.25627E-03   -0.22702E-04    48   0.541E-02    0.729E-03
DAV:   6     0.172538174514E+01    0.26598E-05   -0.29636E-06    48   0.711E-03
   6 F= 0.17253817E+01 E0= 0.17353568E+01  d E =-.223526E+03
       N       E                     dE             d eps       ncg     rms          rms(c)
DAV:   1    -0.890123580673E+01   -0.10627E+02   -0.24692E+02    48   0.823E+01    0.890E+00
DAV:   2    -0.601213957128E+01    0.28891E+01   -0.13799E+00    48   0.665E+00    0.515E+00
DAV:   3    -0.434183116143E+01    0.16703E+01   -0.20280E+00    48   0.733E+00    0.416E-01
DAV:   4    -0.433676355339E+01    0.50676E-02   -0.77824E-03    48   0.512E-01    0.102E-01
DAV:   5    -0.433634742381E+01    0.41613E-03   -0.16065E-04    48   0.683E-02    0.798E-03
DAV:   6    -0.433634792895E+01   -0.50515E-06   -0.21563E-06    42   0.792E-03
   7 F= -.43363479E+01 E0= -.43267065E+01  d E =-.229588E+03
       N       E                     dE             d eps       ncg     rms          rms(c)
DAV:   1    -0.436192637598E+01   -0.25579E-01   -0.38908E+00    48   0.913E+00    0.117E+00
DAV:   2    -0.430638740593E+01    0.55539E-01   -0.30444E-02    48   0.958E-01    0.659E-01
DAV:   3    -0.427325140861E+01    0.33136E-01   -0.42171E-02    48   0.101E+00    0.322E-02
DAV:   4    -0.427318391053E+01    0.67498E-04   -0.98768E-05    48   0.470E-02    0.128E-02
DAV:   5    -0.427316627006E+01    0.17640E-04   -0.22648E-06    42   0.700E-03    0.706E-04
DAV:   6    -0.427316627729E+01   -0.72317E-08   -0.72869E-09    36   0.452E-04
   8 F= -.42731663E+01 E0= -.42635249E+01  d E =-.229524E+03
       N       E                     dE             d eps       ncg     rms          rms(c)
DAV:   1    -0.441346432289E+01   -0.14030E+00   -0.13974E+00    48   0.579E+00    0.705E-01
DAV:   2    -0.439444946579E+01    0.19015E-01   -0.10346E-02    48   0.578E-01    0.398E-01
DAV:   3    -0.438329268764E+01    0.11157E-01   -0.13686E-02    48   0.593E-01    0.226E-02
DAV:   4    -0.438326323950E+01    0.29448E-04   -0.41722E-05    48   0.305E-02    0.808E-03
DAV:   5    -0.438325844437E+01    0.47951E-05   -0.13610E-06    42   0.505E-03
   9 F= -.43832584E+01 E0= -.43736170E+01  d E =-.229634E+03
       N       E                     dE             d eps       ncg     rms          rms(c)
DAV:   1    -0.438453820825E+01   -0.12750E-02   -0.11464E-02    48   0.521E-01    0.642E-02
DAV:   2    -0.438437921978E+01    0.15899E-03   -0.84470E-05    48   0.524E-02    0.363E-02
DAV:   3    -0.438428584881E+01    0.93371E-04   -0.11255E-04    48   0.540E-02    0.198E-03
DAV:   4    -0.438428560393E+01    0.24488E-06   -0.31114E-07    30   0.278E-03
  10 F= -.43842856E+01 E0= -.43746442E+01  d E =-.229636E+03
       N       E                     dE             d eps       ncg     rms          rms(c)
DAV:   1    -0.438429535571E+01   -0.95069E-05   -0.10009E-04    48   0.487E-02    0.597E-03
DAV:   2    -0.438429397686E+01    0.13789E-05   -0.74558E-07    36   0.495E-03
  11 F= -.43842940E+01 E0= -.43746526E+01  d E =-.229636E+03
