 vasp.6.3.2 27Jun22 (build Dec 02 2024 22:47:12) complex                        
  
 executed on             LinuxIFC date 2024.12.06  10:49:36
 running on    1 total cores
 distrk:  each k-point on    1 cores,    1 groups
 distr:  one band on NCORE=   1 cores,    1 groups


--------------------------------------------------------------------------------------------------------


 INCAR:
   SYSTEM = Silicon
   ENCUT = 400
   ISMEAR = 0
   SIGMA = 0.1
   IBRION = 2
   NSW = 50
   EDIFF = 1E-5
   EDIFFG = -0.01
   ISIF = 3
   LWAVE = .FALSE.
   LCHARG = .FALSE.

 POTCAR:   PAW Si 02Apr1999                       
 POTCAR:   PAW Si 02Apr1999                       
   VRHFIN =Si: s2p2                                                                                 
   LEXCH  = CA                                                                                      
   EATOM  =   103.4338 eV,    7.6022 Ry                                                             
                                                                                                    
   TITEL  = PAW Si 02Apr1999                                                                        
   LULTRA =        F    use ultrasoft PP ?                                                          
   IUNSCR =        1    unscreen: 0-lin 1-nonlin 2-no                                               
   RPACOR =    1.500    partial core radius                                                         
   POMASS =   28.085; ZVAL   =    4.000    mass and valenz                                          
   RCORE  =    1.900    outmost cutoff radius                                                       
   RWIGS  =    2.480; RWIGS  =    1.312    wigner-seitz radius (au A)                               
   ENMAX  =  245.704; ENMIN  =  184.278 eV                                                          
   ICORE  =        2    local potential                                                             
   LCOR   =        T    correct aug charges                                                         
   LPAW   =        T    paw PP                                                                      
   EAUG   =  322.069                                                                                
   DEXC   =    -.006                                                                                
   RMAX   =    2.941    core radius for proj-oper                                                   
   RAUG   =    1.300    factor for augmentation sphere                                              
   RDEP   =    1.993    core radius for depl-charge                                                 
   QCUT   =   -4.250; QGAM   =    8.499    optimization parameters                                  
                                                                                                    
   Description                                                                                      
     l     E      TYP  RCUT    TYP  RCUT                                                            
     0   .000     23  1.900                                                                         
     0   .000     23  1.900                                                                         
     1   .000     23  1.900                                                                         
     1   .000     23  1.900                                                                         
     2   .000      7  1.900                                                                         
  local pseudopotential read in
  partial core-charges read in
  atomic valenz-charges read in
  non local Contribution for L=           0  read in
    real space projection operators read in
  non local Contribution for L=           0  read in
    real space projection operators read in
  non local Contribution for L=           1  read in
    real space projection operators read in
  non local Contribution for L=           1  read in
    real space projection operators read in
    PAW grid and wavefunctions read in
 
   number of l-projection  operators is LMAX  =           4
   number of lm-projection operators is LMMAX =           8
 
 PAW Si 02Apr1999                       :
 energy of atom  1       EATOM= -103.4338
 kinetic energy error for atom=    0.0011 (will be added to EATOM!!)
 
 
 POSCAR: Si
  positions in direct lattice
  No initial velocities read in
 exchange correlation table for  LEXCH =        2
   RHO(1)=    0.500       N(1)  =     2000
   RHO(2)=  100.500       N(2)  =     4000
 


--------------------------------------------------------------------------------------------------------


 ion  position               nearest neighbor table
   1  0.000  0.000  0.000-
 
  LATTYP: Found a simple cubic cell.
 ALAT       =     1.0000000000
  
  Lattice vectors:
  
 A1 = (   1.0000000000,   0.0000000000,   0.0000000000)
 A2 = (   0.0000000000,   1.0000000000,   0.0000000000)
 A3 = (   0.0000000000,   0.0000000000,   1.0000000000)


Analysis of symmetry for initial positions (statically):
=====================================================================
 Subroutine PRICEL returns:
 Original cell was already a primitive cell.
 

 Routine SETGRP: Setting up the symmetry group for a 
 simple cubic supercell.


 Subroutine GETGRP returns: Found 48 space group operations
 (whereof 48 operations were pure point group operations)
 out of a pool of 48 trial point group operations.


The static configuration has the point symmetry O_h .


Analysis of symmetry for dynamics (positions and initial velocities):
=====================================================================
 Subroutine PRICEL returns:
 Original cell was already a primitive cell.
 

 Routine SETGRP: Setting up the symmetry group for a 
 simple cubic supercell.


 Subroutine GETGRP returns: Found 48 space group operations
 (whereof 48 operations were pure point group operations)
 out of a pool of 48 trial point group operations.


The dynamic configuration has the point symmetry O_h .


 Subroutine INISYM returns: Found 48 space group operations
 (whereof 48 operations are pure point group operations),
 and found     1 'primitive' translations


----------------------------------------------------------------------------------------

                                     Primitive cell                                     

  volume of cell :       1.0000

  direct lattice vectors                    reciprocal lattice vectors
     1.000000000  0.000000000  0.000000000     1.000000000  0.000000000  0.000000000
     0.000000000  1.000000000  0.000000000     0.000000000  1.000000000  0.000000000
     0.000000000  0.000000000  1.000000000     0.000000000  0.000000000  1.000000000

  length of vectors
     1.000000000  1.000000000  1.000000000     1.000000000  1.000000000  1.000000000

  position of ions in fractional coordinates (direct lattice)
     0.000000000  0.000000000  0.000000000

  ion indices of the primitive-cell ions
   primitive index   ion index
                 1           1

----------------------------------------------------------------------------------------

 
 
 KPOINTS: KPOINTS                                 

Automatic generation of k-mesh.
 Grid dimensions read from file:
 generate k-points for:    4    4    4

 Generating k-lattice:

  Cartesian coordinates                     Fractional coordinates (reciprocal lattice)
     0.250000000  0.000000000  0.000000000     0.250000000  0.000000000  0.000000000
     0.000000000  0.250000000  0.000000000     0.000000000  0.250000000  0.000000000
     0.000000000  0.000000000  0.250000000     0.000000000  0.000000000  0.250000000

  Length of vectors
     0.250000000  0.250000000  0.250000000

  Shift w.r.t. Gamma in fractional coordinates (k-lattice)
     0.500000000  0.500000000  0.500000000

 
 Subroutine IBZKPT returns following result:
 ===========================================
 
 Found      4 irreducible k-points:
 
 Following reciprocal coordinates:
            Coordinates               Weight
  0.125000  0.125000  0.125000      8.000000
  0.375000  0.125000  0.125000     24.000000
  0.375000  0.375000  0.125000     24.000000
  0.375000  0.375000  0.375000      8.000000
 
 Following cartesian coordinates:
            Coordinates               Weight
  0.125000  0.125000  0.125000      8.000000
  0.375000  0.125000  0.125000     24.000000
  0.375000  0.375000  0.125000     24.000000
  0.375000  0.375000  0.375000      8.000000
 


--------------------------------------------------------------------------------------------------------




 Dimension of arrays:
   k-points           NKPTS =      4   k-points in BZ     NKDIM =      4   number of bands    NBANDS=      6
   number of dos      NEDOS =    301   number of ions     NIONS =      1
   non local maximal  LDIM  =      4   non local SUM 2l+1 LMDIM =      8
   total plane-waves  NPLWV =    216
   max r-space proj   IRMAX =      1   max aug-charges    IRDMAX=   7421
   dimension x,y,z NGX =     6 NGY =    6 NGZ =    6
   dimension x,y,z NGXF=    12 NGYF=   12 NGZF=   12
   support grid    NGXF=    12 NGYF=   12 NGZF=   12
   ions per type =               1
   NGX,Y,Z   is equivalent  to a cutoff of   9.97,  9.97,  9.97 a.u.
   NGXF,Y,Z  is equivalent  to a cutoff of  19.95, 19.95, 19.95 a.u.

 SYSTEM =  Silicon                                 
 POSCAR =  Si                                      

 Startparameter for this run:
   NWRITE =      2    write-flag & timer
   PREC   = normal    normal or accurate (medium, high low for compatibility)
   ISTART =      0    job   : 0-new  1-cont  2-samecut
   ICHARG =      2    charge: 1-file 2-atom 10-const
   ISPIN  =      1    spin polarized calculation?
   LNONCOLLINEAR =      F non collinear calculations
   LSORBIT =      F    spin-orbit coupling
   INIWAV =      1    electr: 0-lowe 1-rand  2-diag
   LASPH  =      F    aspherical Exc in radial PAW
 Electronic Relaxation 1
   ENCUT  =  400.0 eV  29.40 Ry    5.42 a.u.   1.63  1.63  1.63*2*pi/ulx,y,z
   ENINI  =  400.0     initial cutoff
   ENAUG  =  322.1 eV  augmentation charge cutoff
   NELM   =     60;   NELMIN=  2; NELMDL=  0     # of ELM steps 
   EDIFF  = 0.1E-04   stopping-criterion for ELM
   LREAL  =      F    real-space projection
   NLSPLINE    = F    spline interpolate recip. space projectors
   LCOMPAT=      F    compatible to vasp.4.4
   GGA_COMPAT  = T    GGA compatible to vasp.4.4-vasp.4.6
   LMAXPAW     = -100 max onsite density
   LMAXMIX     =    2 max onsite mixed and CHGCAR
   VOSKOWN=      0    Vosko Wilk Nusair interpolation
   ROPT   =    0.00000
 Ionic relaxation
   EDIFFG = -.1E-01   stopping-criterion for IOM
   NSW    =     50    number of steps for IOM
   NBLOCK =      1;   KBLOCK =     50    inner block; outer block 
   IBRION =      2    ionic relax: 0-MD 1-quasi-New 2-CG
   NFREE  =      1    steps in history (QN), initial steepest desc. (CG)
   ISIF   =      3    stress and relaxation
   IWAVPR =     11    prediction:  0-non 1-charg 2-wave 3-comb
   ISYM   =      2    0-nonsym 1-usesym 2-fastsym
   LCORR  =      T    Harris-Foulkes like correction to forces

   POTIM  = 0.5000    time-step for ionic-motion
   TEIN   =    0.0    initial temperature
   TEBEG  =    0.0;   TEEND  =   0.0 temperature during run
   SMASS  =  -3.00    Nose mass-parameter (am)
   estimated Nose-frequenzy (Omega)   =  0.10E-29 period in steps = 0.13E+47 mass=  -0.229E-28a.u.
   SCALEE = 1.0000    scale energy and forces
   NPACO  =    256;   APACO  = 10.0  distance and # of slots for P.C.
   PSTRESS=    0.0 pullay stress

  Mass of Ions in am
   POMASS =  28.09
  Ionic Valenz
   ZVAL   =   4.00
  Atomic Wigner-Seitz radii
   RWIGS  =  -1.00
  virtual crystal weights 
   VCA    =   1.00
   NELECT =       4.0000    total number of electrons
   NUPDOWN=      -1.0000    fix difference up-down

 DOS related values:
   EMIN   =  10.00;   EMAX   =-10.00  energy-range for DOS
   EFERMI =   0.00
   ISMEAR =     0;   SIGMA  =   0.10  broadening in eV -4-tet -1-fermi 0-gaus

 Electronic relaxation 2 (details)
   IALGO  =     38    algorithm
   LDIAG  =      T    sub-space diagonalisation (order eigenvalues)
   LSUBROT=      F    optimize rotation matrix (better conditioning)
   TURBO    =      0    0=normal 1=particle mesh
   IRESTART =      0    0=no restart 2=restart with 2 vectors
   NREBOOT  =      0    no. of reboots
   NMIN     =      0    reboot dimension
   EREF     =   0.00    reference energy to select bands
   IMIX   =      4    mixing-type and parameters
     AMIX     =   0.40;   BMIX     =  1.00
     AMIX_MAG =   1.60;   BMIX_MAG =  1.00
     AMIN     =   0.10
     WC   =   100.;   INIMIX=   1;  MIXPRE=   1;  MAXMIX= -45

 Intra band minimization:
   WEIMIN = 0.0010     energy-eigenvalue tresh-hold
   EBREAK =  0.42E-06  absolut break condition
   DEPER  =   0.30     relativ break condition  

   TIME   =   0.40     timestep for ELM

  volume/ion in A,a.u.               =       1.00         6.75
  Fermi-wavevector in a.u.,A,eV,Ry     =   2.598732  4.910891 91.885694  6.753408
  Thomas-Fermi vector in A             =   3.437436
 
 Write flags
   LWAVE        =      F    write WAVECAR
   LDOWNSAMPLE  =      F    k-point downsampling of WAVECAR
   LCHARG       =      F    write CHGCAR
   LVTOT        =      F    write LOCPOT, total local potential
   LVHAR        =      F    write LOCPOT, Hartree potential only
   LELF         =      F    write electronic localiz. function (ELF)
   LORBIT       =      0    0 simple, 1 ext, 2 COOP (PROOUT), +10 PAW based schemes


 Dipole corrections
   LMONO  =      F    monopole corrections only (constant potential shift)
   LDIPOL =      F    correct potential (dipole corrections)
   IDIPOL =      0    1-x, 2-y, 3-z, 4-all directions 
   EPSILON=  1.0000000 bulk dielectric constant

 Exchange correlation treatment:
   GGA     =    --    GGA type
   LEXCH   =     2    internal setting for exchange type
   LIBXC   =     F    Libxc                    
   VOSKOWN =     0    Vosko Wilk Nusair interpolation
   LHFCALC =     F    Hartree Fock is set to
   LHFONE  =     F    Hartree Fock one center treatment
   AEXX    =    0.0000 exact exchange contribution

 Linear response parameters
   LEPSILON=     F    determine dielectric tensor
   LRPA    =     F    only Hartree local field effects (RPA)
   LNABLA  =     F    use nabla operator in PAW spheres
   LVEL    =     F    velocity operator in full k-point grid
   CSHIFT  =0.1000    complex shift for real part using Kramers Kronig
   OMEGAMAX=  -1.0    maximum frequency
   DEG_THRESHOLD= 0.2000000E-02 threshold for treating states as degnerate
   RTIME   =   -0.100 relaxation time in fs
  (WPLASMAI=    0.000 imaginary part of plasma frequency in eV, 0.658/RTIME)
   DFIELD  = 0.0000000 0.0000000 0.0000000 field for delta impulse in time
 
  Optional k-point grid parameters
   LKPOINTS_OPT  =     F    use optional k-point grid
   KPOINTS_OPT_MODE=     1    mode for optional k-point grid
 
 Orbital magnetization related:
   ORBITALMAG=     F  switch on orbital magnetization
   LCHIMAG   =     F  perturbation theory with respect to B field
   DQ        =  0.001000  dq finite difference perturbation B field
   LLRAUG    =     F  two centre corrections for induced B field



--------------------------------------------------------------------------------------------------------


 conjugate gradient relaxation of ions
 charge density and potential will be updated during run
 non-spin polarized calculation
 Variant of blocked Davidson
 Davidson routine will perform the subspace rotation
 perform sub-space diagonalisation
    after iterative eigenvector-optimisation
 modified Broyden-mixing scheme, WC =      100.0
 initial mixing is a Kerker type mixing with AMIX =  0.4000 and BMIX =      1.0000
 Hartree-type preconditioning will be used
 using additional bands            4
 reciprocal scheme for non local part
 use partial core corrections
 calculate Harris-corrections to forces 
   (improved forces if not selfconsistent)
 use of overlap-Matrix (Vanderbilt PP)
 Gauss-broadening in eV      SIGMA  =   0.10


--------------------------------------------------------------------------------------------------------


  energy-cutoff  :      400.00
  volume of cell :        1.00
      direct lattice vectors                 reciprocal lattice vectors
     1.000000000  0.000000000  0.000000000     1.000000000  0.000000000  0.000000000
     0.000000000  1.000000000  0.000000000     0.000000000  1.000000000  0.000000000
     0.000000000  0.000000000  1.000000000     0.000000000  0.000000000  1.000000000

  length of vectors
     1.000000000  1.000000000  1.000000000     1.000000000  1.000000000  1.000000000


 
 k-points in units of 2pi/SCALE and weight: KPOINTS                                 
   0.12500000  0.12500000  0.12500000       0.125
   0.37500000  0.12500000  0.12500000       0.375
   0.37500000  0.37500000  0.12500000       0.375
   0.37500000  0.37500000  0.37500000       0.125
 
 k-points in reciprocal lattice and weights: KPOINTS                                 
   0.12500000  0.12500000  0.12500000       0.125
   0.37500000  0.12500000  0.12500000       0.375
   0.37500000  0.37500000  0.12500000       0.375
   0.37500000  0.37500000  0.37500000       0.125
 
 position of ions in fractional coordinates (direct lattice) 
   0.00000000  0.00000000  0.00000000
 
 position of ions in cartesian coordinates  (Angst):
   0.00000000  0.00000000  0.00000000
 


--------------------------------------------------------------------------------------------------------


 k-point   1 :   0.1250 0.1250 0.1250  plane waves:      20
 k-point   2 :   0.3750 0.1250 0.1250  plane waves:      17
 k-point   3 :   0.3750 0.3750 0.1250  plane waves:      16
 k-point   4 :   0.3750 0.3750 0.3750  plane waves:      17

 maximum and minimum number of plane-waves per node :        20       16

 maximum number of plane-waves:        20
 maximum index in each direction: 
   IXMAX=    1   IYMAX=    1   IZMAX=    1
   IXMIN=   -1   IYMIN=   -1   IZMIN=   -1


 serial   3D FFT for wavefunctions
 parallel 3D FFT for charge:
    minimum data exchange during FFTs selected (reduces bandwidth)


 total amount of memory used by VASP MPI-rank0    30187. kBytes
=======================================================================

   base      :      30000. kBytes
   nonl-proj :          5. kBytes
   fftplans  :         68. kBytes
   grid      :        101. kBytes
   one-center:          3. kBytes
   wavefun   :         10. kBytes
 
     INWAV:  cpu time      0.0001: real time      0.0007
 Broyden mixing: mesh for mixing (old mesh)
   NGX =  3   NGY =  3   NGZ =  3
  (NGX  = 12   NGY  = 12   NGZ  = 12)
  gives a total of     27 points

 initial charge density was supplied:
 charge density of overlapping atoms calculated
 number of electron       4.0000000 magnetization 
 keeping initial charge density in first step


--------------------------------------------------------------------------------------------------------


 Maximum index for augmentation-charges         6979 (set IRDMAX)


--------------------------------------------------------------------------------------------------------


 First call to EWALD:  gamma=   1.772
 Maximum number of real-space cells 3x 3x 3
 Maximum number of reciprocal cells 3x 3x 3

    FEWALD:  cpu time      0.0005: real time      0.0005


--------------------------------------- Iteration      1(   1)  ---------------------------------------


    POTLOK:  cpu time      0.0005: real time      0.0065
    SETDIJ:  cpu time      0.0008: real time      0.0008
     EDDAV:  cpu time      0.0018: real time      0.0018
       DOS:  cpu time      0.0002: real time      0.0020
    --------------------------------------------
      LOOP:  cpu time      0.0033: real time      0.0111

 eigenvalue-minimisations  :    54
 total energy-change (2. order) : 0.2228199E+03  (-0.2595778E+03)
 number of electron       4.0000000 magnetization 
 augmentation part        4.0000000 magnetization 

 Free energy of the ion-electron system (eV)
  ---------------------------------------------------
  alpha Z        PSCENC =        23.70546960
  Ewald energy   TEWEN  =      -326.85184009
  -Hartree energ DENC   =        -0.07132622
  -exchange      EXHF   =         0.00000000
  -V(xc)+E(xc)   XCENC  =        -3.69461785
  PAW double counting   =        33.55897582      -16.14130609
  entropy T*S    EENTRO =        -0.01928279
  eigenvalues    EBANDS =       408.90112745
  atomic energy  EATOM  =       103.43265638
  Solvation  Ediel_sol  =         0.00000000
  ---------------------------------------------------
  free energy    TOTEN  =       222.81985622 eV

  energy without entropy =      222.83913901  energy(sigma->0) =      222.82949761


--------------------------------------------------------------------------------------------------------




--------------------------------------- Iteration      1(   2)  ---------------------------------------


     EDDAV:  cpu time      0.0012: real time      0.0012
       DOS:  cpu time      0.0002: real time      0.0024
    --------------------------------------------
      LOOP:  cpu time      0.0014: real time      0.0036

 eigenvalue-minimisations  :    48
 total energy-change (2. order) :-0.1162394E+02  (-0.5433086E+01)
 number of electron       4.0000000 magnetization 
 augmentation part        4.0000000 magnetization 

 Free energy of the ion-electron system (eV)
  ---------------------------------------------------
  alpha Z        PSCENC =        23.70546960
  Ewald energy   TEWEN  =      -326.85184009
  -Hartree energ DENC   =        -0.07132622
  -exchange      EXHF   =         0.00000000
  -V(xc)+E(xc)   XCENC  =        -3.69461785
  PAW double counting   =        33.55897582      -16.14130609
  entropy T*S    EENTRO =        -0.01928279
  eigenvalues    EBANDS =       397.27718823
  atomic energy  EATOM  =       103.43265638
  Solvation  Ediel_sol  =         0.00000000
  ---------------------------------------------------
  free energy    TOTEN  =       211.19591700 eV

  energy without entropy =      211.21519979  energy(sigma->0) =      211.20555839


--------------------------------------------------------------------------------------------------------




--------------------------------------- Iteration      1(   3)  ---------------------------------------


     EDDAV:  cpu time      0.0012: real time      0.0012
       DOS:  cpu time      0.0002: real time      0.0018
    --------------------------------------------
      LOOP:  cpu time      0.0014: real time      0.0030

 eigenvalue-minimisations  :    48
 total energy-change (2. order) :-0.3602319E+00  (-0.3602319E+00)
 number of electron       4.0000000 magnetization 
 augmentation part        4.0000000 magnetization 

 Free energy of the ion-electron system (eV)
  ---------------------------------------------------
  alpha Z        PSCENC =        23.70546960
  Ewald energy   TEWEN  =      -326.85184009
  -Hartree energ DENC   =        -0.07132622
  -exchange      EXHF   =         0.00000000
  -V(xc)+E(xc)   XCENC  =        -3.69461785
  PAW double counting   =        33.55897582      -16.14130609
  entropy T*S    EENTRO =        -0.01928279
  eigenvalues    EBANDS =       396.91695635
  atomic energy  EATOM  =       103.43265638
  Solvation  Ediel_sol  =         0.00000000
  ---------------------------------------------------
  free energy    TOTEN  =       210.83568512 eV

  energy without entropy =      210.85496791  energy(sigma->0) =      210.84532651


--------------------------------------------------------------------------------------------------------




--------------------------------------- Iteration      1(   4)  ---------------------------------------


     EDDAV:  cpu time      0.0012: real time      0.0012
       DOS:  cpu time      0.0002: real time      0.0018
    --------------------------------------------
      LOOP:  cpu time      0.0013: real time      0.0030

 eigenvalue-minimisations  :    48
 total energy-change (2. order) :-0.7632931E-03  (-0.7632864E-03)
 number of electron       4.0000000 magnetization 
 augmentation part        4.0000000 magnetization 

 Free energy of the ion-electron system (eV)
  ---------------------------------------------------
  alpha Z        PSCENC =        23.70546960
  Ewald energy   TEWEN  =      -326.85184009
  -Hartree energ DENC   =        -0.07132622
  -exchange      EXHF   =         0.00000000
  -V(xc)+E(xc)   XCENC  =        -3.69461785
  PAW double counting   =        33.55897582      -16.14130609
  entropy T*S    EENTRO =        -0.01928279
  eigenvalues    EBANDS =       396.91619306
  atomic energy  EATOM  =       103.43265638
  Solvation  Ediel_sol  =         0.00000000
  ---------------------------------------------------
  free energy    TOTEN  =       210.83492183 eV

  energy without entropy =      210.85420462  energy(sigma->0) =      210.84456322


--------------------------------------------------------------------------------------------------------




--------------------------------------- Iteration      1(   5)  ---------------------------------------


     EDDAV:  cpu time      0.0010: real time      0.0010
       DOS:  cpu time      0.0001: real time      0.0039
    CHARGE:  cpu time      0.0006: real time      0.0006
    MIXING:  cpu time      0.0002: real time      0.0218
    --------------------------------------------
      LOOP:  cpu time      0.0019: real time      0.0272

 eigenvalue-minimisations  :    42
 total energy-change (2. order) :-0.5259065E-05  (-0.5253301E-05)
 number of electron       4.0000008 magnetization 
 augmentation part       -0.6894777 magnetization 

 Broyden mixing:
  rms(total) = 0.24429E+01    rms(broyden)= 0.24393E+01
  rms(prec ) = 0.10072E+02
  weight for this iteration     100.00

 Free energy of the ion-electron system (eV)
  ---------------------------------------------------
  alpha Z        PSCENC =        23.70546960
  Ewald energy   TEWEN  =      -326.85184009
  -Hartree energ DENC   =        -0.07132622
  -exchange      EXHF   =         0.00000000
  -V(xc)+E(xc)   XCENC  =        -3.69461785
  PAW double counting   =        33.55897582      -16.14130609
  entropy T*S    EENTRO =        -0.01928279
  eigenvalues    EBANDS =       396.91618780
  atomic energy  EATOM  =       103.43265638
  Solvation  Ediel_sol  =         0.00000000
  ---------------------------------------------------
  free energy    TOTEN  =       210.83491657 eV

  energy without entropy =      210.85419936  energy(sigma->0) =      210.84455796


--------------------------------------------------------------------------------------------------------




--------------------------------------- Iteration      1(   6)  ---------------------------------------


    POTLOK:  cpu time      0.0004: real time      0.0004
    SETDIJ:  cpu time      0.0007: real time      0.0007
     EDDAV:  cpu time      0.0010: real time      0.0010
       DOS:  cpu time      0.0001: real time      0.0001
    CHARGE:  cpu time      0.0005: real time      0.0005
    MIXING:  cpu time      0.0001: real time      0.0001
    --------------------------------------------
      LOOP:  cpu time      0.0027: real time      0.0027

 eigenvalue-minimisations  :    48
 total energy-change (2. order) : 0.1043399E+02  (-0.3627547E+00)
 number of electron       4.0000007 magnetization 
 augmentation part       -0.6380117 magnetization 

 Broyden mixing:
  rms(total) = 0.14081E+01    rms(broyden)= 0.14080E+01
  rms(prec ) = 0.57979E+01
  weight for this iteration     100.00

 eigenvalues of (default mixing * dielectric matrix)
  average eigenvalue GAMMA=   2.3597
  2.3597

 Free energy of the ion-electron system (eV)
  ---------------------------------------------------
  alpha Z        PSCENC =        23.70546960
  Ewald energy   TEWEN  =      -326.85184009
  -Hartree energ DENC   =        -2.53248547
  -exchange      EXHF   =         0.00000000
  -V(xc)+E(xc)   XCENC  =        -2.74859032
  PAW double counting   =       187.18561493     -172.84117076
  entropy T*S    EENTRO =        -0.01928279
  eigenvalues    EBANDS =       411.93853210
  atomic energy  EATOM  =       103.43265638
  Solvation  Ediel_sol  =         0.00000000
  ---------------------------------------------------
  free energy    TOTEN  =       221.26890358 eV

  energy without entropy =      221.28818637  energy(sigma->0) =      221.27854498


--------------------------------------------------------------------------------------------------------




--------------------------------------- Iteration      1(   7)  ---------------------------------------


    POTLOK:  cpu time      0.0006: real time      0.0010
    SETDIJ:  cpu time      0.0007: real time      0.0285
     EDDAV:  cpu time      0.0010: real time      0.0010
       DOS:  cpu time      0.0002: real time      0.0014
    CHARGE:  cpu time      0.0005: real time      0.0005
    MIXING:  cpu time      0.0002: real time      0.0028
    --------------------------------------------
      LOOP:  cpu time      0.0032: real time      0.0352

 eigenvalue-minimisations  :    48
 total energy-change (2. order) : 0.3831594E+01  (-0.5835128E+00)
 number of electron       4.0000005 magnetization 
 augmentation part       -0.4484394 magnetization 

 Broyden mixing:
  rms(total) = 0.26227E+00    rms(broyden)= 0.25789E+00
  rms(prec ) = 0.85634E+00
  weight for this iteration     100.00

 eigenvalues of (default mixing * dielectric matrix)
  average eigenvalue GAMMA=   1.1910
  2.3539  0.0281

 Free energy of the ion-electron system (eV)
  ---------------------------------------------------
  alpha Z        PSCENC =        23.70546960
  Ewald energy   TEWEN  =      -326.85184009
  -Hartree energ DENC   =       -11.46281804
  -exchange      EXHF   =         0.00000000
  -V(xc)+E(xc)   XCENC  =        -0.27614008
  PAW double counting   =       635.46260407     -628.51479733
  entropy T*S    EENTRO =        -0.03422621
  eigenvalues    EBANDS =       429.63958906
  atomic energy  EATOM  =       103.43265638
  Solvation  Ediel_sol  =         0.00000000
  ---------------------------------------------------
  free energy    TOTEN  =       225.10049736 eV

  energy without entropy =      225.13472358  energy(sigma->0) =      225.11761047


--------------------------------------------------------------------------------------------------------




--------------------------------------- Iteration      1(   8)  ---------------------------------------


    POTLOK:  cpu time      0.0005: real time      0.0005
    SETDIJ:  cpu time      0.0008: real time      0.0034
     EDDAV:  cpu time      0.0010: real time      0.0010
       DOS:  cpu time      0.0002: real time      0.0015
    CHARGE:  cpu time      0.0006: real time      0.0006
    MIXING:  cpu time      0.0002: real time      0.0023
    --------------------------------------------
      LOOP:  cpu time      0.0033: real time      0.0092

 eigenvalue-minimisations  :    48
 total energy-change (2. order) :-0.3591844E-01  (-0.1177192E-02)
 number of electron       4.0000005 magnetization 
 augmentation part       -0.4323558 magnetization 

 Broyden mixing:
  rms(total) = 0.29078E+00    rms(broyden)= 0.29034E+00
  rms(prec ) = 0.95429E+00
  weight for this iteration     100.00

 eigenvalues of (default mixing * dielectric matrix)
  average eigenvalue GAMMA=   0.9369
  2.3447  0.2331  0.2331

 Free energy of the ion-electron system (eV)
  ---------------------------------------------------
  alpha Z        PSCENC =        23.70546960
  Ewald energy   TEWEN  =      -326.85184009
  -Hartree energ DENC   =       -11.55225592
  -exchange      EXHF   =         0.00000000
  -V(xc)+E(xc)   XCENC  =        -0.25759638
  PAW double counting   =       640.15927870     -633.33820886
  entropy T*S    EENTRO =        -0.02859952
  eigenvalues    EBANDS =       429.79567501
  atomic energy  EATOM  =       103.43265638
  Solvation  Ediel_sol  =         0.00000000
  ---------------------------------------------------
  free energy    TOTEN  =       225.06457892 eV

  energy without entropy =      225.09317844  energy(sigma->0) =      225.07887868


--------------------------------------------------------------------------------------------------------




--------------------------------------- Iteration      1(   9)  ---------------------------------------


    POTLOK:  cpu time      0.0003: real time      0.0003
    SETDIJ:  cpu time      0.0007: real time      0.0007
     EDDAV:  cpu time      0.0010: real time      0.0010
       DOS:  cpu time      0.0002: real time      0.0009
    CHARGE:  cpu time      0.0005: real time      0.0005
    MIXING:  cpu time      0.0002: real time      0.0351
    --------------------------------------------
      LOOP:  cpu time      0.0029: real time      0.0385

 eigenvalue-minimisations  :    48
 total energy-change (2. order) :-0.8617281E-02  (-0.1114649E-04)
 number of electron       4.0000005 magnetization 
 augmentation part       -0.4292346 magnetization 

 Broyden mixing:
  rms(total) = 0.29681E+00    rms(broyden)= 0.29678E+00
  rms(prec ) = 0.97636E+00
  weight for this iteration     100.00

 eigenvalues of (default mixing * dielectric matrix)
  average eigenvalue GAMMA=   1.4938
  2.4443  2.1170  0.9843  0.4296

 Free energy of the ion-electron system (eV)
  ---------------------------------------------------
  alpha Z        PSCENC =        23.70546960
  Ewald energy   TEWEN  =      -326.85184009
  -Hartree energ DENC   =       -11.57062913
  -exchange      EXHF   =         0.00000000
  -V(xc)+E(xc)   XCENC  =        -0.25521939
  PAW double counting   =       641.57201487     -634.78094697
  entropy T*S    EENTRO =        -0.02713146
  eigenvalues    EBANDS =       429.83158783
  atomic energy  EATOM  =       103.43265638
  Solvation  Ediel_sol  =         0.00000000
  ---------------------------------------------------
  free energy    TOTEN  =       225.05596164 eV

  energy without entropy =      225.08309310  energy(sigma->0) =      225.06952737


--------------------------------------------------------------------------------------------------------




--------------------------------------- Iteration      1(  10)  ---------------------------------------


    POTLOK:  cpu time      0.0005: real time      0.0005
    SETDIJ:  cpu time      0.0007: real time      0.0007
     EDDAV:  cpu time      0.0010: real time      0.0010
       DOS:  cpu time      0.0001: real time      0.0001
    CHARGE:  cpu time      0.0004: real time      0.0004
    MIXING:  cpu time      0.0001: real time      0.0001
    --------------------------------------------
      LOOP:  cpu time      0.0028: real time      0.0028

 eigenvalue-minimisations  :    48
 total energy-change (2. order) : 0.1781307E+00  (-0.6799587E-02)
 number of electron       4.0000006 magnetization 
 augmentation part       -0.5449704 magnetization 

 Broyden mixing:
  rms(total) = 0.71280E-01    rms(broyden)= 0.55171E-01
  rms(prec ) = 0.15429E+00
  weight for this iteration     100.00
  WARNING: grid for Broyden might be to small

 eigenvalues of (default mixing * dielectric matrix)
  average eigenvalue GAMMA=   1.4702
  2.5078  1.9173  1.5998  0.8827  0.4433

 Free energy of the ion-electron system (eV)
  ---------------------------------------------------
  alpha Z        PSCENC =        23.70546960
  Ewald energy   TEWEN  =      -326.85184009
  -Hartree energ DENC   =       -10.91494821
  -exchange      EXHF   =         0.00000000
  -V(xc)+E(xc)   XCENC  =        -0.39121956
  PAW double counting   =       585.82638190     -577.75813187
  entropy T*S    EENTRO =        -0.01929347
  eigenvalues    EBANDS =       428.20501769
  atomic energy  EATOM  =       103.43265638
  Solvation  Ediel_sol  =         0.00000000
  ---------------------------------------------------
  free energy    TOTEN  =       225.23409237 eV

  energy without entropy =      225.25338585  energy(sigma->0) =      225.24373911


--------------------------------------------------------------------------------------------------------




--------------------------------------- Iteration      1(  11)  ---------------------------------------


    POTLOK:  cpu time      0.0004: real time      0.0008
    SETDIJ:  cpu time      0.0007: real time      0.0007
     EDDAV:  cpu time      0.0010: real time      0.0029
       DOS:  cpu time      0.0002: real time      0.0024
    CHARGE:  cpu time      0.0006: real time      0.0006
    MIXING:  cpu time      0.0002: real time      0.0101
    --------------------------------------------
      LOOP:  cpu time      0.0032: real time      0.0175

 eigenvalue-minimisations  :    48
 total energy-change (2. order) : 0.3619966E-02  (-0.9359984E-04)
 number of electron       4.0000006 magnetization 
 augmentation part       -0.5457265 magnetization 

 Broyden mixing:
  rms(total) = 0.52984E-01    rms(broyden)= 0.52147E-01
  rms(prec ) = 0.14396E+00
  weight for this iteration     100.00

 eigenvalues of (default mixing * dielectric matrix)
  average eigenvalue GAMMA=   1.5131
  2.5114  2.1066  2.1066  0.4384  0.9577  0.9577

 Free energy of the ion-electron system (eV)
  ---------------------------------------------------
  alpha Z        PSCENC =        23.70546960
  Ewald energy   TEWEN  =      -326.85184009
  -Hartree energ DENC   =       -10.89483534
  -exchange      EXHF   =         0.00000000
  -V(xc)+E(xc)   XCENC  =        -0.39033849
  PAW double counting   =       584.69104050     -576.53047996
  entropy T*S    EENTRO =        -0.01928424
  eigenvalues    EBANDS =       428.09532397
  atomic energy  EATOM  =       103.43265638
  Solvation  Ediel_sol  =         0.00000000
  ---------------------------------------------------
  free energy    TOTEN  =       225.23771234 eV

  energy without entropy =      225.25699658  energy(sigma->0) =      225.24735446


--------------------------------------------------------------------------------------------------------




--------------------------------------- Iteration      1(  12)  ---------------------------------------


    POTLOK:  cpu time      0.0004: real time      0.0004
    SETDIJ:  cpu time      0.0007: real time      0.0007
     EDDAV:  cpu time      0.0010: real time      0.0010
       DOS:  cpu time      0.0002: real time      0.0009
    CHARGE:  cpu time      0.0005: real time      0.0005
    MIXING:  cpu time      0.0003: real time      0.0131
    --------------------------------------------
      LOOP:  cpu time      0.0031: real time      0.0165

 eigenvalue-minimisations  :    48
 total energy-change (2. order) : 0.7185634E-02  (-0.1799620E-03)
 number of electron       4.0000006 magnetization 
 augmentation part       -0.5467684 magnetization 

 Broyden mixing:
  rms(total) = 0.38687E-01    rms(broyden)= 0.38651E-01
  rms(prec ) = 0.91130E-01
  weight for this iteration     100.00

 eigenvalues of (default mixing * dielectric matrix)
  average eigenvalue GAMMA=   1.3675
  2.5156  2.1462  2.1462  0.9638  0.9638  0.4186  0.4186

 Free energy of the ion-electron system (eV)
  ---------------------------------------------------
  alpha Z        PSCENC =        23.70546960
  Ewald energy   TEWEN  =      -326.85184009
  -Hartree energ DENC   =       -10.79531255
  -exchange      EXHF   =         0.00000000
  -V(xc)+E(xc)   XCENC  =        -0.41484411
  PAW double counting   =       579.78946888     -571.43798375
  entropy T*S    EENTRO =        -0.01928281
  eigenvalues    EBANDS =       427.83656641
  atomic energy  EATOM  =       103.43265638
  Solvation  Ediel_sol  =         0.00000000
  ---------------------------------------------------
  free energy    TOTEN  =       225.24489797 eV

  energy without entropy =      225.26418078  energy(sigma->0) =      225.25453937


--------------------------------------------------------------------------------------------------------




--------------------------------------- Iteration      1(  13)  ---------------------------------------


    POTLOK:  cpu time      0.0007: real time      0.0032
    SETDIJ:  cpu time      0.0008: real time      0.0124
     EDDAV:  cpu time      0.0010: real time      0.0010
       DOS:  cpu time      0.0001: real time      0.0001
    CHARGE:  cpu time      0.0004: real time      0.0004
    MIXING:  cpu time      0.0001: real time      0.0001
    --------------------------------------------
      LOOP:  cpu time      0.0031: real time      0.0172

 eigenvalue-minimisations  :    48
 total energy-change (2. order) : 0.3482202E-02  (-0.9981883E-04)
 number of electron       4.0000006 magnetization 
 augmentation part       -0.5475549 magnetization 

 Broyden mixing:
  rms(total) = 0.25749E-01    rms(broyden)= 0.25748E-01
  rms(prec ) = 0.60684E-01
  weight for this iteration     100.00

 eigenvalues of (default mixing * dielectric matrix)
  average eigenvalue GAMMA=   1.9899
  5.5091  2.5878  2.5878  1.7269  0.4405  1.1715  0.9478  0.9478

 Free energy of the ion-electron system (eV)
  ---------------------------------------------------
  alpha Z        PSCENC =        23.70546960
  Ewald energy   TEWEN  =      -326.85184009
  -Hartree energ DENC   =       -10.74534152
  -exchange      EXHF   =         0.00000000
  -V(xc)+E(xc)   XCENC  =        -0.42830684
  PAW double counting   =       578.05045569     -569.55816541
  entropy T*S    EENTRO =        -0.01928279
  eigenvalues    EBANDS =       427.66273516
  atomic energy  EATOM  =       103.43265638
  Solvation  Ediel_sol  =         0.00000000
  ---------------------------------------------------
  free energy    TOTEN  =       225.24838017 eV

  energy without entropy =      225.26766296  energy(sigma->0) =      225.25802157


--------------------------------------------------------------------------------------------------------




--------------------------------------- Iteration      1(  14)  ---------------------------------------


    POTLOK:  cpu time      0.0004: real time      0.0008
    SETDIJ:  cpu time      0.0007: real time      0.0007
     EDDAV:  cpu time      0.0012: real time      0.0259
       DOS:  cpu time      0.0002: real time      0.0022
    CHARGE:  cpu time      0.0006: real time      0.0006
    MIXING:  cpu time      0.0003: real time      0.0024
    --------------------------------------------
      LOOP:  cpu time      0.0035: real time      0.0326

 eigenvalue-minimisations  :    48
 total energy-change (2. order) : 0.2631857E-02  (-0.2124278E-03)
 number of electron       4.0000006 magnetization 
 augmentation part       -0.5486947 magnetization 

 Broyden mixing:
  rms(total) = 0.70746E-02    rms(broyden)= 0.70671E-02
  rms(prec ) = 0.16733E-01
  weight for this iteration     100.00

 eigenvalues of (default mixing * dielectric matrix)
  average eigenvalue GAMMA=   1.9934
  6.3105  2.5790  2.5790  1.8549  0.4405  1.3721  0.9711  0.9711  0.8627

 Free energy of the ion-electron system (eV)
  ---------------------------------------------------
  alpha Z        PSCENC =        23.70546960
  Ewald energy   TEWEN  =      -326.85184009
  -Hartree energ DENC   =       -10.67383165
  -exchange      EXHF   =         0.00000000
  -V(xc)+E(xc)   XCENC  =        -0.44761631
  PAW double counting   =       575.41780270     -566.71981857
  entropy T*S    EENTRO =        -0.01928279
  eigenvalues    EBANDS =       427.40747276
  atomic energy  EATOM  =       103.43265638
  Solvation  Ediel_sol  =         0.00000000
  ---------------------------------------------------
  free energy    TOTEN  =       225.25101203 eV

  energy without entropy =      225.27029482  energy(sigma->0) =      225.26065342


--------------------------------------------------------------------------------------------------------




--------------------------------------- Iteration      1(  15)  ---------------------------------------


    POTLOK:  cpu time      0.0005: real time      0.0033
    SETDIJ:  cpu time      0.0007: real time      0.0007
     EDDAV:  cpu time      0.0010: real time      0.0142
       DOS:  cpu time      0.0002: real time      0.0022
    CHARGE:  cpu time      0.0006: real time      0.0006
    MIXING:  cpu time      0.0002: real time      0.0022
    --------------------------------------------
      LOOP:  cpu time      0.0033: real time      0.0232

 eigenvalue-minimisations  :    48
 total energy-change (2. order) : 0.2097301E-03  (-0.2016295E-04)
 number of electron       4.0000006 magnetization 
 augmentation part       -0.5490497 magnetization 

 Broyden mixing:
  rms(total) = 0.15035E-02    rms(broyden)= 0.14957E-02
  rms(prec ) = 0.36452E-02
  weight for this iteration     100.00

 eigenvalues of (default mixing * dielectric matrix)
  average eigenvalue GAMMA=   2.2429
  7.1857  3.1413  3.1413  2.5925  1.8139  0.4132  1.2373  0.9517  0.9517  1.0000

 Free energy of the ion-electron system (eV)
  ---------------------------------------------------
  alpha Z        PSCENC =        23.70546960
  Ewald energy   TEWEN  =      -326.85184009
  -Hartree energ DENC   =       -10.65241274
  -exchange      EXHF   =         0.00000000
  -V(xc)+E(xc)   XCENC  =        -0.45340709
  PAW double counting   =       574.61482974     -565.85500278
  entropy T*S    EENTRO =        -0.01928279
  eigenvalues    EBANDS =       427.33021153
  atomic energy  EATOM  =       103.43265638
  Solvation  Ediel_sol  =         0.00000000
  ---------------------------------------------------
  free energy    TOTEN  =       225.25122176 eV

  energy without entropy =      225.27050455  energy(sigma->0) =      225.26086315


--------------------------------------------------------------------------------------------------------




--------------------------------------- Iteration      1(  16)  ---------------------------------------


    POTLOK:  cpu time      0.0003: real time      0.0003
    SETDIJ:  cpu time      0.0007: real time      0.0007
     EDDAV:  cpu time      0.0009: real time      0.0009
       DOS:  cpu time      0.0001: real time      0.0001
    --------------------------------------------
      LOOP:  cpu time      0.0020: real time      0.0020

 eigenvalue-minimisations  :    42
 total energy-change (2. order) : 0.9887640E-05  (-0.1794876E-05)
 number of electron       4.0000006 magnetization 
 augmentation part       -0.5490497 magnetization 

 Free energy of the ion-electron system (eV)
  ---------------------------------------------------
  alpha Z        PSCENC =        23.70546960
  Ewald energy   TEWEN  =      -326.85184009
  -Hartree energ DENC   =       -10.64595054
  -exchange      EXHF   =         0.00000000
  -V(xc)+E(xc)   XCENC  =        -0.45516305
  PAW double counting   =       574.38122975     -565.60317676
  entropy T*S    EENTRO =        -0.01928279
  eigenvalues    EBANDS =       427.30728914
  atomic energy  EATOM  =       103.43265638
  Solvation  Ediel_sol  =         0.00000000
  ---------------------------------------------------
  free energy    TOTEN  =       225.25123165 eV

  energy without entropy =      225.27051444  energy(sigma->0) =      225.26087304


--------------------------------------------------------------------------------------------------------




 average (electrostatic) potential at core
  the test charge radii are     0.9892
  (the norm of the test charge is              1.0000)
       1 -29.1199
 
 
 
 E-fermi : 129.3996     XC(G=0): -26.7333     alpha+bet :********

 Fermi energy:       129.3996414758

 k-point     1 :       0.1250    0.1250    0.1250
  band No.  band energies     occupation 
      1     119.9835      2.00000
      2     119.9835      2.00000
      3     125.6918      2.00000
      4     176.9416      0.00000
      5     177.8602      0.00000
      6     177.8602      0.00000

 k-point     2 :       0.3750    0.1250    0.1250
  band No.  band energies     occupation 
      1     103.7340      2.00000
      2     129.4301      0.66667
      3     130.5015      0.00000
      4     156.4168      0.00000
      5     177.7378      0.00000
      6     183.0273      0.00000

 k-point     3 :       0.3750    0.3750    0.1250
  band No.  band energies     occupation 
      1      76.4902      2.00000
      2     128.8823      2.00000
      3     130.3290      0.00000
      4     151.6459      0.00000
      5     179.2581      0.00000
      6     180.9188      0.00000

 k-point     4 :       0.3750    0.3750    0.3750
  band No.  band energies     occupation 
      1      83.9853      2.00000
      2     101.4176      2.00000
      3     101.4176      2.00000
      4     145.7474      0.00000
      5     163.8398      0.00000
      6     163.8398      0.00000


--------------------------------------------------------------------------------------------------------


 soft charge-density along one line, spin component           1
         0         1         2         3         4         5         6         7         8         9
 total charge-density along one line
 
 pseudopotential strength for first ion, spin component:           1
 13.929  -0.065   0.000   0.000   0.000  -0.000  -0.000  -0.000
 -0.065   0.005  -0.000  -0.000  -0.000   0.000   0.000   0.000
  0.000  -0.000   4.013   0.000   0.000  -0.056  -0.000  -0.000
  0.000  -0.000   0.000   4.013   0.000  -0.000  -0.056  -0.000
  0.000  -0.000   0.000   0.000   4.013  -0.000  -0.000  -0.056
 -0.000   0.000  -0.056  -0.000  -0.000   0.009   0.000   0.000
 -0.000   0.000  -0.000  -0.056  -0.000   0.000   0.009   0.000
 -0.000   0.000  -0.000  -0.000  -0.056   0.000   0.000   0.009
 total augmentation occupancy for first ion, spin component:           1
  0.519 -18.070   0.000   0.000   0.000   0.000   0.000   0.000
-18.070 676.290   0.000   0.000   0.000   0.000   0.000   0.000
  0.000   0.000   7.918   0.000  -0.000  25.156  -0.000  -0.000
  0.000   0.000   0.000   7.918  -0.000  -0.000  25.156   0.000
  0.000   0.000  -0.000  -0.000   7.918  -0.000   0.000  25.156
  0.000   0.000  25.156  -0.000  -0.000 259.537   0.000   0.000
  0.000   0.000  -0.000  25.156   0.000   0.000 259.537   0.000
  0.000   0.000  -0.000   0.000  25.156   0.000   0.000 259.537


------------------------ aborting loop because EDIFF is reached ----------------------------------------


    CHARGE:  cpu time      0.0005: real time      0.0005
    FORLOC:  cpu time      0.0000: real time      0.0000
    FORNL :  cpu time      0.0015: real time      0.0015
    STRESS:  cpu time      0.0050: real time      0.0050
    FORCOR:  cpu time      0.0003: real time      0.0153
    FORHAR:  cpu time      0.0002: real time      0.0002
    MIXING:  cpu time      0.0003: real time      0.0003
    OFIELD:  cpu time      0.0000: real time      0.0000

  FORCE on cell =-STRESS in cart. coord.  units (eV):
  Direction    XX          YY          ZZ          XY          YZ          ZX
  --------------------------------------------------------------------------------------
  Alpha Z    23.70547    23.70547    23.70547
  Ewald    -108.95061  -108.95061  -108.95061    -0.00000     0.00000     0.00000
  Hartree     3.54883     3.54883     3.54883    -0.00000    -0.00000    -0.00000
  E(xc)     -37.48358   -37.48358   -37.48358     0.00000     0.00000    -0.00000
  Local     -49.32198   -49.32198   -49.32198    -0.00000    -0.00000    -0.00000
  n-local   144.44281   141.35098   198.36230    65.80673     0.15768    28.27102
  augment    -5.09873    -5.09873    -5.09873     0.00000     0.00000     0.00000
  Kinetic   336.68034   295.33869   186.97886  -107.05088   -28.41914   -37.16494
  Fock        0.00000     0.00000     0.00000     0.00000     0.00000     0.00000
  -------------------------------------------------------------------------------------
  Total     260.78404   260.78404   260.78404    -0.00000    -0.00000     0.00000
  in kB  417822.27907417822.27907417822.27907    -0.00000    -0.00000     0.00000
  external pressure =   417822.28 kB  Pullay stress =        0.00 kB


 VOLUME and BASIS-vectors are now :
 -----------------------------------------------------------------------------
  energy-cutoff  :      400.00
  volume of cell :        1.00
      direct lattice vectors                 reciprocal lattice vectors
     1.000000000  0.000000000  0.000000000     1.000000000  0.000000000  0.000000000
     0.000000000  1.000000000  0.000000000     0.000000000  1.000000000  0.000000000
     0.000000000  0.000000000  1.000000000     0.000000000  0.000000000  1.000000000

  length of vectors
     1.000000000  1.000000000  1.000000000     1.000000000  1.000000000  1.000000000


 FORCES acting on ions
    electron-ion (+dipol)            ewald-force                    non-local-force                 convergence-correction
 -----------------------------------------------------------------------------------------------
   0.108E-14 -.166E-16 0.721E-16   0.148E-14 0.102E-14 -.585E-15   0.000E+00 0.000E+00 0.000E+00   0.384E-15 0.365E-16 0.621E-17
 -----------------------------------------------------------------------------------------------
   0.108E-14 -.166E-16 0.721E-16   0.148E-14 0.102E-14 -.585E-15   0.000E+00 0.000E+00 0.000E+00   0.384E-15 0.365E-16 0.621E-17
 
 
 POSITION                                       TOTAL-FORCE (eV/Angst)
 -----------------------------------------------------------------------------------
      0.00000      0.00000      0.00000         0.000000      0.000000      0.000000
 -----------------------------------------------------------------------------------
    total drift:                                0.000000      0.000000     -0.000000


--------------------------------------------------------------------------------------------------------



  FREE ENERGIE OF THE ION-ELECTRON SYSTEM (eV)
  ---------------------------------------------------
  free  energy   TOTEN  =       225.25123165 eV

  energy  without entropy=      225.27051444  energy(sigma->0) =      225.26087304
 


--------------------------------------------------------------------------------------------------------


    POTLOK:  cpu time      0.0013: real time      0.0039


--------------------------------------------------------------------------------------------------------




--------------------------------------------------------------------------------------------------------


    WAVPRE:  cpu time      0.0013: real time      0.0395
    FEWALD:  cpu time      0.0000: real time      0.0000
    GENKIN:  cpu time      0.0000: real time      0.0000
    ORTHCH:  cpu time      0.0001: real time      0.0001
     LOOP+:  cpu time      0.0550: real time      0.3981


--------------------------------------- Iteration      2(   1)  ---------------------------------------


    POTLOK:  cpu time      0.0005: real time      0.0031
    SETDIJ:  cpu time      0.0008: real time      0.0030
     EDDAV:  cpu time      0.0011: real time      0.0011
       DOS:  cpu time      0.0003: real time      0.0012
    CHARGE:  cpu time      0.0003: real time      0.0003
    MIXING:  cpu time      0.0002: real time      0.0026
    --------------------------------------------
      LOOP:  cpu time      0.0031: real time      0.0114

 eigenvalue-minimisations  :    54
 total energy-change (2. order) :-0.1829121E+03  (-0.2613295E+02)
 number of electron       3.9830469 magnetization 
 augmentation part       -0.0248886 magnetization 

 Broyden mixing:
  rms(total) = 0.85021E+00    rms(broyden)= 0.84990E+00
  rms(prec ) = 0.10493E+01
  weight for this iteration     100.00

 Free energy of the ion-electron system (eV)
  ---------------------------------------------------
  alpha Z        PSCENC =         0.00946371
  Ewald energy   TEWEN  =       -24.06699820
  -Hartree energ DENC   =        -0.78386885
  -exchange      EXHF   =         0.00000000
  -V(xc)+E(xc)   XCENC  =       -18.41778053
  PAW double counting   =       574.37329975     -565.59452374
  entropy T*S    EENTRO =        -0.03397605
  eigenvalues    EBANDS =       -26.57916485
  atomic energy  EATOM  =       103.43265638
  Solvation  Ediel_sol  =         0.00000000
  ---------------------------------------------------
  free energy    TOTEN  =        42.33910763 eV

  energy without entropy =       42.37308368  energy(sigma->0) =       42.35609565


--------------------------------------------------------------------------------------------------------




--------------------------------------- Iteration      2(   2)  ---------------------------------------


    POTLOK:  cpu time      0.0005: real time      0.0005
    SETDIJ:  cpu time      0.0004: real time      0.0004
     EDDAV:  cpu time      0.0009: real time      0.0009
       DOS:  cpu time      0.0001: real time      0.0001
    CHARGE:  cpu time      0.0002: real time      0.0002
    MIXING:  cpu time      0.0001: real time      0.0001
    --------------------------------------------
      LOOP:  cpu time      0.0022: real time      0.0022

 eigenvalue-minimisations  :    48
 total energy-change (2. order) : 0.4710477E+01  (-0.1645375E+01)
 number of electron       3.9814734 magnetization 
 augmentation part       -0.0271986 magnetization 

 Broyden mixing:
  rms(total) = 0.52144E+00    rms(broyden)= 0.52140E+00
  rms(prec ) = 0.77727E+00
  weight for this iteration     100.00

 eigenvalues of (default mixing * dielectric matrix)
  average eigenvalue GAMMA=   2.5021
  2.5021

 Free energy of the ion-electron system (eV)
  ---------------------------------------------------
  alpha Z        PSCENC =         0.00946371
  Ewald energy   TEWEN  =       -24.06699820
  -Hartree energ DENC   =        -0.38283226
  -exchange      EXHF   =         0.00000000
  -V(xc)+E(xc)   XCENC  =       -18.53633115
  PAW double counting   =       214.80032179     -200.42592825
  entropy T*S    EENTRO =        -0.03543350
  eigenvalues    EBANDS =       -27.74533368
  atomic energy  EATOM  =       103.43265638
  Solvation  Ediel_sol  =         0.00000000
  ---------------------------------------------------
  free energy    TOTEN  =        47.04958485 eV

  energy without entropy =       47.08501835  energy(sigma->0) =       47.06730160


--------------------------------------------------------------------------------------------------------




--------------------------------------- Iteration      2(   3)  ---------------------------------------


    POTLOK:  cpu time      0.0006: real time      0.0010
    SETDIJ:  cpu time      0.0005: real time      0.0216
     EDDAV:  cpu time      0.0010: real time      0.0010
       DOS:  cpu time      0.0002: real time      0.0018
    CHARGE:  cpu time      0.0002: real time      0.0002
    MIXING:  cpu time      0.0001: real time      0.0001
    --------------------------------------------
      LOOP:  cpu time      0.0027: real time      0.0257

 eigenvalue-minimisations  :    48
 total energy-change (2. order) : 0.5214887E+01  (-0.3764336E-01)
 number of electron       3.9814559 magnetization 
 augmentation part       -0.0272243 magnetization 

 Broyden mixing:
  rms(total) = 0.10820E+00    rms(broyden)= 0.10819E+00
  rms(prec ) = 0.43267E+00
  weight for this iteration     100.00

 eigenvalues of (default mixing * dielectric matrix)
  average eigenvalue GAMMA=   3.3874
  2.4973  4.2774

 Free energy of the ion-electron system (eV)
  ---------------------------------------------------
  alpha Z        PSCENC =         0.00946371
  Ewald energy   TEWEN  =       -24.06699820
  -Hartree energ DENC   =        -0.15104091
  -exchange      EXHF   =         0.00000000
  -V(xc)+E(xc)   XCENC  =       -18.62574597
  PAW double counting   =        18.47448084       -0.62415152
  entropy T*S    EENTRO =        -0.03318718
  eigenvalues    EBANDS =       -26.15100564
  atomic energy  EATOM  =       103.43265638
  Solvation  Ediel_sol  =         0.00000000
  ---------------------------------------------------
  free energy    TOTEN  =        52.26447151 eV

  energy without entropy =       52.29765869  energy(sigma->0) =       52.28106510


--------------------------------------------------------------------------------------------------------




--------------------------------------- Iteration      2(   4)  ---------------------------------------


    POTLOK:  cpu time      0.0004: real time      0.0034
    SETDIJ:  cpu time      0.0007: real time      0.0033
     EDDAV:  cpu time      0.0012: real time      0.0035
       DOS:  cpu time      0.0003: real time      0.0022
    CHARGE:  cpu time      0.0002: real time      0.0002
    MIXING:  cpu time      0.0002: real time      0.0024
    --------------------------------------------
      LOOP:  cpu time      0.0030: real time      0.0150

 eigenvalue-minimisations  :    48
 total energy-change (2. order) : 0.2133941E+01  (-0.2269493E-02)
 number of electron       3.9814506 magnetization 
 augmentation part       -0.0272322 magnetization 

 Broyden mixing:
  rms(total) = 0.48062E-01    rms(broyden)= 0.48060E-01
  rms(prec ) = 0.20481E+00
  weight for this iteration     100.00

 eigenvalues of (default mixing * dielectric matrix)
  average eigenvalue GAMMA=   4.6568
 10.3797  1.0904  2.5001

 Free energy of the ion-electron system (eV)
  ---------------------------------------------------
  alpha Z        PSCENC =         0.00946371
  Ewald energy   TEWEN  =       -24.06699820
  -Hartree energ DENC   =        -1.67148525
  -exchange      EXHF   =         0.00000000
  -V(xc)+E(xc)   XCENC  =       -18.69144588
  PAW double counting   =        17.86937785        0.01401651
  entropy T*S    EENTRO =        -0.03954562
  eigenvalues    EBANDS =       -22.45762719
  atomic energy  EATOM  =       103.43265638
  Solvation  Ediel_sol  =         0.00000000
  ---------------------------------------------------
  free energy    TOTEN  =        54.39841230 eV

  energy without entropy =       54.43795793  energy(sigma->0) =       54.41818512


--------------------------------------------------------------------------------------------------------




--------------------------------------- Iteration      2(   5)  ---------------------------------------


    POTLOK:  cpu time      0.0005: real time      0.0030
    SETDIJ:  cpu time      0.0004: real time      0.0004
     EDDAV:  cpu time      0.0013: real time      0.0209
       DOS:  cpu time      0.0002: real time      0.0021
    CHARGE:  cpu time      0.0002: real time      0.0002
    MIXING:  cpu time      0.0001: real time      0.0001
    --------------------------------------------
      LOOP:  cpu time      0.0027: real time      0.0268

 eigenvalue-minimisations  :    54
 total energy-change (2. order) : 0.2782671E+00  (-0.2258616E-02)
 number of electron       3.9814967 magnetization 
 augmentation part       -0.0271645 magnetization 

 Broyden mixing:
  rms(total) = 0.13458E-01    rms(broyden)= 0.13449E-01
  rms(prec ) = 0.44952E-01
  weight for this iteration     100.00

 eigenvalues of (default mixing * dielectric matrix)
  average eigenvalue GAMMA=   6.3165
 10.8805 10.8805  2.5000  1.0052

 Free energy of the ion-electron system (eV)
  ---------------------------------------------------
  alpha Z        PSCENC =         0.00946371
  Ewald energy   TEWEN  =       -24.06699820
  -Hartree energ DENC   =        -5.55580863
  -exchange      EXHF   =         0.00000000
  -V(xc)+E(xc)   XCENC  =       -17.68013288
  PAW double counting   =        17.88080017        0.00238190
  entropy T*S    EENTRO =        -0.04344977
  eigenvalues    EBANDS =       -19.30223327
  atomic energy  EATOM  =       103.43265638
  Solvation  Ediel_sol  =         0.00000000
  ---------------------------------------------------
  free energy    TOTEN  =        54.67667942 eV

  energy without entropy =       54.72012919  energy(sigma->0) =       54.69840430


--------------------------------------------------------------------------------------------------------




--------------------------------------- Iteration      2(   6)  ---------------------------------------


    POTLOK:  cpu time      0.0005: real time      0.0032
    SETDIJ:  cpu time      0.0004: real time      0.0004
     EDDAV:  cpu time      0.0007: real time      0.0030
       DOS:  cpu time      0.0001: real time      0.0001
    CHARGE:  cpu time      0.0001: real time      0.0001
    MIXING:  cpu time      0.0001: real time      0.0001
    --------------------------------------------
      LOOP:  cpu time      0.0020: real time      0.0068

 eigenvalue-minimisations  :    48
 total energy-change (2. order) : 0.9717034E-02  (-0.2340274E-04)
 number of electron       3.9814958 magnetization 
 augmentation part       -0.0271658 magnetization 

 Broyden mixing:
  rms(total) = 0.89976E-02    rms(broyden)= 0.89968E-02
  rms(prec ) = 0.30275E-01
  weight for this iteration     100.00

 eigenvalues of (default mixing * dielectric matrix)
  average eigenvalue GAMMA=   4.9783
  9.3524  9.3524  0.9981  2.5000  2.6885

 Free energy of the ion-electron system (eV)
  ---------------------------------------------------
  alpha Z        PSCENC =         0.00946371
  Ewald energy   TEWEN  =       -24.06699820
  -Hartree energ DENC   =        -5.29684313
  -exchange      EXHF   =         0.00000000
  -V(xc)+E(xc)   XCENC  =       -17.75385124
  PAW double counting   =        17.88073616        0.00245114
  entropy T*S    EENTRO =        -0.04301137
  eigenvalues    EBANDS =       -19.47820700
  atomic energy  EATOM  =       103.43265638
  Solvation  Ediel_sol  =         0.00000000
  ---------------------------------------------------
  free energy    TOTEN  =        54.68639645 eV

  energy without entropy =       54.72940782  energy(sigma->0) =       54.70790214


--------------------------------------------------------------------------------------------------------




--------------------------------------- Iteration      2(   7)  ---------------------------------------


    POTLOK:  cpu time      0.0006: real time      0.0027
    SETDIJ:  cpu time      0.0005: real time      0.0162
     EDDAV:  cpu time      0.0006: real time      0.0006
       DOS:  cpu time      0.0002: real time      0.0020
    CHARGE:  cpu time      0.0003: real time      0.0002
    MIXING:  cpu time      0.0002: real time      0.0026
    --------------------------------------------
      LOOP:  cpu time      0.0025: real time      0.0245

 eigenvalue-minimisations  :    48
 total energy-change (2. order) : 0.2656837E-02  (-0.1110234E-03)
 number of electron       3.9814834 magnetization 
 augmentation part       -0.0271840 magnetization 

 Broyden mixing:
  rms(total) = 0.32088E-02    rms(broyden)= 0.32081E-02
  rms(prec ) = 0.10537E-01
  weight for this iteration     100.00

 eigenvalues of (default mixing * dielectric matrix)
  average eigenvalue GAMMA=   4.5588
  9.2710  9.2710  4.4074  2.5000  0.9986  0.9047

 Free energy of the ion-electron system (eV)
  ---------------------------------------------------
  alpha Z        PSCENC =         0.00946371
  Ewald energy   TEWEN  =       -24.06699820
  -Hartree energ DENC   =        -4.60185524
  -exchange      EXHF   =         0.00000000
  -V(xc)+E(xc)   XCENC  =       -17.89242475
  PAW double counting   =        17.88058894        0.00261092
  entropy T*S    EENTRO =        -0.04336437
  eigenvalues    EBANDS =       -20.03162411
  atomic energy  EATOM  =       103.43265638
  Solvation  Ediel_sol  =         0.00000000
  ---------------------------------------------------
  free energy    TOTEN  =        54.68905329 eV

  energy without entropy =       54.73241765  energy(sigma->0) =       54.71073547


--------------------------------------------------------------------------------------------------------




--------------------------------------- Iteration      2(   8)  ---------------------------------------


    POTLOK:  cpu time      0.0005: real time      0.0029
    SETDIJ:  cpu time      0.0003: real time      0.0003
     EDDAV:  cpu time      0.0007: real time      0.0056
       DOS:  cpu time      0.0002: real time      0.0025
    CHARGE:  cpu time      0.0001: real time      0.0001
    MIXING:  cpu time      0.0001: real time      0.0001
    --------------------------------------------
      LOOP:  cpu time      0.0018: real time      0.0115

 eigenvalue-minimisations  :    48
 total energy-change (2. order) : 0.6100170E-03  (-0.1061039E-05)
 number of electron       3.9814845 magnetization 
 augmentation part       -0.0271824 magnetization 

 Broyden mixing:
  rms(total) = 0.16658E-02    rms(broyden)= 0.16658E-02
  rms(prec ) = 0.54433E-02
  weight for this iteration     100.00

 eigenvalues of (default mixing * dielectric matrix)
  average eigenvalue GAMMA=   4.8210
 10.1950  8.5388  8.5388  2.5000  1.0001  1.0094  1.9651

 Free energy of the ion-electron system (eV)
  ---------------------------------------------------
  alpha Z        PSCENC =         0.00946371
  Ewald energy   TEWEN  =       -24.06699820
  -Hartree energ DENC   =        -4.68748427
  -exchange      EXHF   =         0.00000000
  -V(xc)+E(xc)   XCENC  =       -17.87087457
  PAW double counting   =        17.88067985        0.00251276
  entropy T*S    EENTRO =        -0.04344985
  eigenvalues    EBANDS =       -19.96684251
  atomic energy  EATOM  =       103.43265638
  Solvation  Ediel_sol  =         0.00000000
  ---------------------------------------------------
  free energy    TOTEN  =        54.68966331 eV

  energy without entropy =       54.73311315  energy(sigma->0) =       54.71138823


--------------------------------------------------------------------------------------------------------




--------------------------------------- Iteration      2(   9)  ---------------------------------------


    POTLOK:  cpu time      0.0003: real time      0.0003
    SETDIJ:  cpu time      0.0003: real time      0.0003
     EDDAV:  cpu time      0.0007: real time      0.0007
       DOS:  cpu time      0.0001: real time      0.0001
    CHARGE:  cpu time      0.0001: real time      0.0001
    MIXING:  cpu time      0.0001: real time      0.0001
    --------------------------------------------
      LOOP:  cpu time      0.0015: real time      0.0015

 eigenvalue-minimisations  :    48
 total energy-change (2. order) : 0.1723439E-03  (-0.1152418E-05)
 number of electron       3.9814860 magnetization 
 augmentation part       -0.0271802 magnetization 

 Broyden mixing:
  rms(total) = 0.15103E-04    rms(broyden)= 0.14640E-04
  rms(prec ) = 0.18953E-04
  weight for this iteration     100.00

 eigenvalues of (default mixing * dielectric matrix)
  average eigenvalue GAMMA=   4.1061
  9.9876  8.4046  6.3653  1.0978  1.0001  2.5000  2.4935  1.0000

 Free energy of the ion-electron system (eV)
  ---------------------------------------------------
  alpha Z        PSCENC =         0.00946371
  Ewald energy   TEWEN  =       -24.06699820
  -Hartree energ DENC   =        -4.77834218
  -exchange      EXHF   =         0.00000000
  -V(xc)+E(xc)   XCENC  =       -17.84939191
  PAW double counting   =        17.88073770        0.00245031
  entropy T*S    EENTRO =        -0.04350470
  eigenvalues    EBANDS =       -19.89723546
  atomic energy  EATOM  =       103.43265638
  Solvation  Ediel_sol  =         0.00000000
  ---------------------------------------------------
  free energy    TOTEN  =        54.68983565 eV

  energy without entropy =       54.73334035  energy(sigma->0) =       54.71158800


--------------------------------------------------------------------------------------------------------




--------------------------------------- Iteration      2(  10)  ---------------------------------------


    POTLOK:  cpu time      0.0003: real time      0.0013
    SETDIJ:  cpu time      0.0003: real time      0.0003
     EDDAV:  cpu time      0.0007: real time      0.0211
       DOS:  cpu time      0.0003: real time      0.0059
    --------------------------------------------
      LOOP:  cpu time      0.0016: real time      0.0287

 eigenvalue-minimisations  :    42
 total energy-change (2. order) :-0.8552469E-07  (-0.2583890E-08)
 number of electron       3.9814860 magnetization 
 augmentation part       -0.0271802 magnetization 

 Free energy of the ion-electron system (eV)
  ---------------------------------------------------
  alpha Z        PSCENC =         0.00946371
  Ewald energy   TEWEN  =       -24.06699820
  -Hartree energ DENC   =        -4.77865777
  -exchange      EXHF   =         0.00000000
  -V(xc)+E(xc)   XCENC  =       -17.84932456
  PAW double counting   =        17.88071345        0.00247646
  entropy T*S    EENTRO =        -0.04350426
  eigenvalues    EBANDS =       -19.89698964
  atomic energy  EATOM  =       103.43265638
  Solvation  Ediel_sol  =         0.00000000
  ---------------------------------------------------
  free energy    TOTEN  =        54.68983556 eV

  energy without entropy =       54.73333983  energy(sigma->0) =       54.71158770


--------------------------------------------------------------------------------------------------------




 average (electrostatic) potential at core
  the test charge radii are     0.9892
  (the norm of the test charge is              3.1364)
       1-332.7802
 
 
 
 E-fermi :  -2.0439     XC(G=0):  -1.6754     alpha+bet : -0.0966

 Fermi energy:        -2.0438770165

 k-point     1 :       0.1250    0.1250    0.1250
  band No.  band energies     occupation 
      1      -8.3223      2.00000
      2      -2.4998      2.00000
      3      -2.1078      1.63379
      4      -2.1078      1.63379
      5      -0.4432      0.00000
      6      -0.2480      0.00000

 k-point     2 :       0.3750    0.1250    0.1250
  band No.  band energies     occupation 
      1      -7.7025      2.00000
      2      -2.4478      2.00000
      3      -1.9405      0.14385
      4      -1.6066      0.00000
      5      -0.3944      0.00000
      6      -0.1549      0.00000

 k-point     3 :       0.3750    0.3750    0.1250
  band No.  band energies     occupation 
      1      -7.4749      2.00000
      2      -2.0673      1.25948
      3      -1.8246      0.00193
      4      -1.7616      0.00007
      5      -0.2187      0.00000
      6      -0.0490      0.00000

 k-point     4 :       0.3750    0.3750    0.3750
  band No.  band energies     occupation 
      1      -7.6054      2.00000
      2      -1.9915      0.45921
      3      -1.8891      0.02863
      4      -1.8891      0.02863
      5       0.0189      0.00000
      6       0.0189      0.00000


--------------------------------------------------------------------------------------------------------


 soft charge-density along one line, spin component           1
         0         1         2         3         4         5         6         7         8         9
 total charge-density along one line
 
 pseudopotential strength for first ion, spin component:           1
 50.040   0.209   0.000   0.000   0.000   0.000   0.000   0.000
  0.209   0.010   0.000   0.000   0.000   0.000   0.000   0.000
  0.000   0.000   8.814   0.000  -0.000   0.147   0.000   0.000
  0.000   0.000   0.000   8.814  -0.000   0.000   0.147  -0.000
  0.000   0.000  -0.000  -0.000   8.814   0.000  -0.000   0.147
  0.000   0.000   0.147   0.000   0.000  -0.008  -0.000  -0.000
  0.000   0.000   0.000   0.147  -0.000  -0.000  -0.008   0.000
  0.000   0.000   0.000  -0.000   0.147  -0.000   0.000  -0.008
 total augmentation occupancy for first ion, spin component:           1
  0.072  -0.279   0.000   0.000   0.000   0.000   0.000   0.000
 -0.279   1.079   0.000   0.000   0.000   0.000   0.000   0.000
  0.000   0.000   0.001  -0.000  -0.000  -0.005   0.000   0.000
  0.000   0.000  -0.000   0.001  -0.000  -0.000  -0.005  -0.000
  0.000   0.000  -0.000  -0.000   0.001   0.000  -0.000  -0.005
  0.000   0.000  -0.005   0.000   0.000   0.024  -0.000  -0.000
  0.000   0.000  -0.000  -0.005  -0.000  -0.000   0.024  -0.000
  0.000   0.000   0.000  -0.000  -0.005  -0.000   0.000   0.024


------------------------ aborting loop because EDIFF is reached ----------------------------------------


    CHARGE:  cpu time      0.0001: real time      0.0001
    FORLOC:  cpu time      0.0000: real time      0.0000
    FORNL :  cpu time      0.0000: real time      0.0000
    STRESS:  cpu time      0.0003: real time      0.0003
    FORCOR:  cpu time      0.0001: real time      0.0001
    FORHAR:  cpu time      0.0001: real time      0.0001
    MIXING:  cpu time      0.0001: real time      0.0001
    OFIELD:  cpu time      0.0000: real time      0.0000

  FORCE on cell =-STRESS in cart. coord.  units (eV):
  Direction    XX          YY          ZZ          XY          YZ          ZX
  --------------------------------------------------------------------------------------
  Alpha Z     0.00946     0.00946     0.00946
  Ewald      -8.02233    -8.02233    -8.02233    -0.00000     0.00000    -0.00000
  Hartree     1.59337     1.59337     1.59303    -0.00002    -0.00019    -0.00019
  E(xc)      -5.66656    -5.66656    -5.66656     0.00000    -0.00000     0.00000
  Local      -7.74793    -7.74793    -7.74793     0.00000    -0.00000    -0.00000
  n-local     3.41418     3.41408     3.41872     0.00085    -0.00289     0.00031
  augment    -2.87072    -2.87072    -2.87072     0.00000     0.00000     0.00000
  Kinetic     2.29651     3.03844     3.66558     0.08173    -0.42823     0.11921
  Fock        0.00000     0.00000     0.00000     0.00000     0.00000     0.00000
  -------------------------------------------------------------------------------------
  Total     -16.28899   -16.28899   -16.28899     0.00000    -0.00000     0.00000
  in kB     -10.41880   -10.41880   -10.41880     0.00000    -0.00000     0.00000
  external pressure =      -10.42 kB  Pullay stress =        0.00 kB


 VOLUME and BASIS-vectors are now :
 -----------------------------------------------------------------------------
  energy-cutoff  :      400.00
  volume of cell :     2504.88
      direct lattice vectors                 reciprocal lattice vectors
    13.580914303 -0.000000000  0.000000000     0.073632745  0.000000000  0.000000000
    -0.000000000 13.580914303  0.000000000     0.000000000  0.073632745  0.000000000
    -0.000000000 -0.000000000 13.580914303    -0.000000000 -0.000000000  0.073632745

  length of vectors
    13.580914303 13.580914303 13.580914303     0.073632745  0.073632745  0.073632745


 FORCES acting on ions
    electron-ion (+dipol)            ewald-force                    non-local-force                 convergence-correction
 -----------------------------------------------------------------------------------------------
   0.347E-15 0.332E-17 0.668E-17   -.128E-16 0.111E-16 -.172E-17   0.220E-28 0.511E-29 0.624E-29   0.699E-15 0.259E-16 -.544E-16
 -----------------------------------------------------------------------------------------------
   0.347E-15 0.332E-17 0.668E-17   -.128E-16 0.111E-16 -.172E-17   0.220E-28 0.511E-29 0.624E-29   0.699E-15 0.259E-16 -.544E-16
 
 
 POSITION                                       TOTAL-FORCE (eV/Angst)
 -----------------------------------------------------------------------------------
      0.00000      0.00000      0.00000         0.000000      0.000000      0.000000
 -----------------------------------------------------------------------------------
    total drift:                                0.000000      0.000000     -0.000000


--------------------------------------------------------------------------------------------------------



  FREE ENERGIE OF THE ION-ELECTRON SYSTEM (eV)
  ---------------------------------------------------
  free  energy   TOTEN  =        54.68983556 eV

  energy  without entropy=       54.73333983  energy(sigma->0) =       54.71158770
 
 d Force = 0.0000000E+00[ 0.000E+00, 0.000E+00]  d Energy = 0.1705614E+03-0.171E+03
[...]
  Ewald energy   TEWEN  =      -132.94084922
  -Hartree energ DENC   =        -1.30610736
  -exchange      EXHF   =         0.00000000
  -V(xc)+E(xc)   XCENC  =        -8.67452873
  PAW double counting   =        35.96988682      -18.55270775
  entropy T*S    EENTRO =        -0.01928279
  eigenvalues    EBANDS =        16.11160878
  atomic energy  EATOM  =       103.43265638
  Solvation  Ediel_sol  =         0.00000000
  ---------------------------------------------------
  free energy    TOTEN  =        -4.38428560 eV

  energy without entropy =       -4.36500281  energy(sigma->0) =       -4.37464421


--------------------------------------------------------------------------------------------------------




 average (electrostatic) potential at core
  the test charge radii are     0.9892
  (the norm of the test charge is              0.9999)
       1 -82.4266
 
 
 
 E-fermi :   9.3017     XC(G=0): -11.0925     alpha+bet :-16.2838

 Fermi energy:         9.3017171812

 k-point     1 :       0.1250    0.1250    0.1250
  band No.  band energies     occupation 
      1      -3.5586      2.00000
      2      13.3501      0.00000
      3      13.3501      0.00000
      4      15.9169      0.00000
      5      24.8419      0.00000
      6      28.6832      0.00000

 k-point     2 :       0.3750    0.1250    0.1250
  band No.  band energies     occupation 
      1      -0.6665      2.00000
      2       5.6863      2.00000
      3      15.9160      0.00000
      4      18.3829      0.00000
      5      24.1113      0.00000
      6      24.1282      0.00000

 k-point     3 :       0.3750    0.3750    0.1250
  band No.  band energies     occupation 
      1       2.1979      2.00000
      2       7.5958      2.00000
      3       9.2713      1.33333
      4      15.5304      0.00000
      5      20.3719      0.00000
      6      26.9781      0.00000

 k-point     4 :       0.3750    0.3750    0.3750
  band No.  band energies     occupation 
      1       5.0219      2.00000
      2      10.0367      0.00000
      3      10.0367      0.00000
      4      13.8099      0.00000
      5      18.3362      0.00000
      6      18.3362      0.00000


--------------------------------------------------------------------------------------------------------


 soft charge-density along one line, spin component           1
         0         1         2         3         4         5         6         7         8         9
 total charge-density along one line
 
 pseudopotential strength for first ion, spin component:           1
 19.085  -0.003  -0.000  -0.000  -0.000   0.000   0.000   0.000
 -0.003   0.006   0.000   0.000   0.000  -0.000  -0.000  -0.000
 -0.000   0.000   4.288  -0.000   0.000  -0.006   0.000  -0.000
 -0.000   0.000  -0.000   4.288  -0.000   0.000  -0.006   0.000
 -0.000   0.000   0.000  -0.000   4.288  -0.000   0.000  -0.006
  0.000  -0.000  -0.006   0.000  -0.000   0.005  -0.000   0.000
  0.000  -0.000   0.000  -0.006   0.000  -0.000   0.005  -0.000
  0.000  -0.000  -0.000   0.000  -0.006   0.000  -0.000   0.005
 total augmentation occupancy for first ion, spin component:           1
  1.804   0.886   0.000   0.000   0.000   0.000   0.000   0.000
  0.886   2.515   0.000   0.000   0.000   0.000   0.000   0.000
  0.000   0.000   0.652   0.000  -0.000  -1.629  -0.000   0.000
  0.000   0.000   0.000   0.652  -0.000  -0.000  -1.629   0.000
  0.000   0.000  -0.000  -0.000   0.652   0.000   0.000  -1.629
  0.000   0.000  -1.629   0.000   0.000   4.114   0.000   0.000
  0.000   0.000  -0.000  -1.629   0.000  -0.000   4.114  -0.000
  0.000   0.000   0.000   0.000  -1.629   0.000  -0.000   4.114


------------------------ aborting loop because EDIFF is reached ----------------------------------------


    CHARGE:  cpu time      0.0002: real time      0.0002
    FORLOC:  cpu time      0.0001: real time      0.0001
    FORNL :  cpu time      0.0002: real time      0.0002
    STRESS:  cpu time      0.0005: real time      0.0005
    FORCOR:  cpu time      0.0002: real time      0.0002
    FORHAR:  cpu time      0.0001: real time      0.0001
    MIXING:  cpu time      0.0000: real time      0.0000
    OFIELD:  cpu time      0.0000: real time      0.0000

  FORCE on cell =-STRESS in cart. coord.  units (eV):
  Direction    XX          YY          ZZ          XY          YZ          ZX
  --------------------------------------------------------------------------------------
  Alpha Z     1.59504     1.59504     1.59504
  Ewald     -44.31362   -44.31362   -44.31362    -0.00000    -0.00000    -0.00000
  Hartree     0.43545     0.43545     0.43545    -0.00000    -0.00000    -0.00000
  E(xc)     -13.05816   -13.05816   -13.05816     0.00000    -0.00000     0.00000
  Local      -6.02890    -6.02890    -6.02890     0.00000    -0.00000    -0.00000
  n-local    39.42528    39.29299    40.06087    -0.31637    -0.17823    -0.23564
  augment    -6.71808    -6.71808    -6.71808     0.00000     0.00000     0.00000
  Kinetic    47.78116    29.06953     8.59203    -6.80050     3.48071     1.20157
  Fock        0.00000     0.00000     0.00000     0.00000     0.00000     0.00000
  -------------------------------------------------------------------------------------
  Total      -0.01432    -0.01432    -0.01432    -0.00000     0.00000    -0.00000
  in kB      -1.54344    -1.54344    -1.54344    -0.00000     0.00000    -0.00000
  external pressure =       -1.54 kB  Pullay stress =        0.00 kB


 VOLUME and BASIS-vectors are now :
 -----------------------------------------------------------------------------
  energy-cutoff  :      400.00
  volume of cell :       14.86
      direct lattice vectors                 reciprocal lattice vectors
     2.458626088 -0.000000000  0.000000000     0.406731225  0.000000000  0.000000000
    -0.000000000  2.458626088  0.000000000     0.000000000  0.406731225  0.000000000
    -0.000000000 -0.000000000  2.458626088    -0.000000000 -0.000000000  0.406731225

  length of vectors
     2.458626088  2.458626088  2.458626088     0.406731225  0.406731225  0.406731225


 FORCES acting on ions
    electron-ion (+dipol)            ewald-force                    non-local-force                 convergence-correction
 -----------------------------------------------------------------------------------------------
   0.197E-14 -.993E-16 -.671E-17   0.701E-16 -.159E-15 0.154E-15   -.407E-23 0.990E-24 -.178E-23   -.178E-15 -.875E-17 -.256E-17
 -----------------------------------------------------------------------------------------------
   0.197E-14 -.993E-16 -.671E-17   0.701E-16 -.159E-15 0.154E-15   -.407E-23 0.990E-24 -.178E-23   -.178E-15 -.875E-17 -.256E-17
 
 
 POSITION                                       TOTAL-FORCE (eV/Angst)
 -----------------------------------------------------------------------------------
      0.00000      0.00000      0.00000        -0.000000      0.000000      0.000000
 -----------------------------------------------------------------------------------
    total drift:                                0.000000     -0.000000      0.000000


--------------------------------------------------------------------------------------------------------



  FREE ENERGIE OF THE ION-ELECTRON SYSTEM (eV)
  ---------------------------------------------------
  free  energy   TOTEN  =        -4.38428560 eV

  energy  without entropy=       -4.36500281  energy(sigma->0) =       -4.37464421
 
 d Force = 0.0000000E+00[ 0.000E+00, 0.000E+00]  d Energy = 0.1027160E-02-0.103E-02
 d Force = 0.0000000E+00[ 0.000E+00, 0.000E+00]  d Ewald  = 0.5008006E+00-0.501E+00


--------------------------------------------------------------------------------------------------------


    POTLOK:  cpu time      0.0008: real time      0.0025


--------------------------------------------------------------------------------------------------------




--------------------------------------------------------------------------------------------------------


    WAVPRE:  cpu time      0.0009: real time      0.0489
    FEWALD:  cpu time      0.0000: real time      0.0000
    GENKIN:  cpu time      0.0000: real time      0.0000
    ORTHCH:  cpu time      0.0000: real time      0.0000
     LOOP+:  cpu time      0.0108: real time      0.1894


--------------------------------------- Iteration     11(   1)  ---------------------------------------


    POTLOK:  cpu time      0.0002: real time      0.0025
    SETDIJ:  cpu time      0.0003: real time      0.0003
     EDDAV:  cpu time      0.0007: real time      0.0007
       DOS:  cpu time      0.0001: real time      0.0016
    CHARGE:  cpu time      0.0001: real time      0.0001
    MIXING:  cpu time      0.0000: real time      0.0000
    --------------------------------------------
      LOOP:  cpu time      0.0016: real time      0.0053

 eigenvalue-minimisations  :    48
 total energy-change (2. order) :-0.9506910E-05  (-0.1000910E-04)
 number of electron       4.0000307 magnetization 
 augmentation part       -0.2586399 magnetization 

 Broyden mixing:
  rms(total) = 0.59709E-03    rms(broyden)= 0.57017E-03
  rms(prec ) = 0.24266E-02
  weight for this iteration     100.00

 Free energy of the ion-electron system (eV)
  ---------------------------------------------------
  alpha Z        PSCENC =         1.59672092
  Ewald energy   TEWEN  =      -132.98758071
  -Hartree energ DENC   =        -1.30676659
  -exchange      EXHF   =         0.00000000
  -V(xc)+E(xc)   XCENC  =        -8.67221186
  PAW double counting   =        35.97898644      -18.56206927
  entropy T*S    EENTRO =        -0.01928279
  eigenvalues    EBANDS =        16.15525212
  atomic energy  EATOM  =       103.43265638
  Solvation  Ediel_sol  =         0.00000000
  ---------------------------------------------------
  free energy    TOTEN  =        -4.38429536 eV

  energy without entropy =       -4.36501257  energy(sigma->0) =       -4.37465396


--------------------------------------------------------------------------------------------------------




--------------------------------------- Iteration     11(   2)  ---------------------------------------


    POTLOK:  cpu time      0.0003: real time      0.0003
    SETDIJ:  cpu time      0.0004: real time      0.0004
     EDDAV:  cpu time      0.0006: real time      0.0006
       DOS:  cpu time      0.0001: real time      0.0001
    --------------------------------------------
      LOOP:  cpu time      0.0013: real time      0.0013

 eigenvalue-minimisations  :    36
 total energy-change (2. order) : 0.1378856E-05  (-0.7455767E-07)
 number of electron       4.0000307 magnetization 
 augmentation part       -0.2586399 magnetization 

 Free energy of the ion-electron system (eV)
  ---------------------------------------------------
  alpha Z        PSCENC =         1.59672092
  Ewald energy   TEWEN  =      -132.98758071
  -Hartree energ DENC   =        -1.30558349
  -exchange      EXHF   =         0.00000000
  -V(xc)+E(xc)   XCENC  =        -8.67208714
  PAW double counting   =        35.98564135      -18.56887331
  entropy T*S    EENTRO =        -0.01928279
  eigenvalues    EBANDS =        16.15409481
  atomic energy  EATOM  =       103.43265638
  Solvation  Ediel_sol  =         0.00000000
  ---------------------------------------------------
  free energy    TOTEN  =        -4.38429398 eV

  energy without entropy =       -4.36501119  energy(sigma->0) =       -4.37465258


--------------------------------------------------------------------------------------------------------




 average (electrostatic) potential at core
  the test charge radii are     0.9892
  (the norm of the test charge is              0.9999)
       1 -82.4081
 
 
 
 E-fermi :   9.3165     XC(G=0): -11.0964     alpha+bet :-16.3010

 Fermi energy:         9.3165350876

 k-point     1 :       0.1250    0.1250    0.1250
  band No.  band energies     occupation 
      1      -3.5526      2.00000
      2      13.3653      0.00000
      3      13.3653      0.00000
      4      15.9374      0.00000
      5      24.8642      0.00000
      6      28.7125      0.00000

 k-point     2 :       0.3750    0.1250    0.1250
  band No.  band energies     occupation 
      1      -0.6582      2.00000
      2       5.6966      2.00000
      3      15.9338      0.00000
      4      18.4048      0.00000
      5      24.1301      0.00000
      6      24.1507      0.00000

 k-point     3 :       0.3750    0.3750    0.1250
  band No.  band energies     occupation 
      1       2.2084      2.00000
      2       7.6073      2.00000
      3       9.2861      1.33333
      4      15.5441      0.00000
      5      20.3961      0.00000
      6      27.0034      0.00000

 k-point     4 :       0.3750    0.3750    0.3750
  band No.  band energies     occupation 
      1       5.0346      2.00000
      2      10.0505      0.00000
      3      10.0505      0.00000
      4      13.8302      0.00000
      5      18.3509      0.00000
      6      18.3509      0.00000


--------------------------------------------------------------------------------------------------------


 soft charge-density along one line, spin component           1
         0         1         2         3         4         5         6         7         8         9
 total charge-density along one line
 
 pseudopotential strength for first ion, spin component:           1
 19.083  -0.003   0.000  -0.000   0.000  -0.000   0.000  -0.000
 -0.003   0.006  -0.000   0.000  -0.000   0.000  -0.000   0.000
  0.000  -0.000   4.288  -0.000   0.000  -0.006   0.000  -0.000
 -0.000   0.000  -0.000   4.288   0.000   0.000  -0.006  -0.000
  0.000  -0.000   0.000   0.000   4.288  -0.000  -0.000  -0.006
 -0.000   0.000  -0.006   0.000  -0.000   0.005  -0.000   0.000
  0.000  -0.000   0.000  -0.006  -0.000  -0.000   0.005   0.000
 -0.000   0.000  -0.000  -0.000  -0.006   0.000   0.000   0.005
 total augmentation occupancy for first ion, spin component:           1
  1.804   0.882   0.000   0.000   0.000   0.000   0.000   0.000
  0.882   2.515   0.000   0.000   0.000   0.000   0.000   0.000
  0.000   0.000   0.653   0.000  -0.000  -1.630   0.000   0.000
  0.000   0.000   0.000   0.653  -0.000  -0.000  -1.630   0.000
  0.000   0.000   0.000   0.000   0.653   0.000   0.000  -1.630
  0.000   0.000  -1.630   0.000   0.000   4.116   0.000  -0.000
  0.000   0.000   0.000  -1.630   0.000   0.000   4.116   0.000
  0.000   0.000   0.000   0.000  -1.630   0.000   0.000   4.116


------------------------ aborting loop because EDIFF is reached ----------------------------------------


    CHARGE:  cpu time      0.0001: real time      0.0001
    FORLOC:  cpu time      0.0000: real time      0.0000
    FORNL :  cpu time      0.0001: real time      0.0001
    STRESS:  cpu time      0.0005: real time      0.0005
    FORCOR:  cpu time      0.0002: real time      0.0002
    FORHAR:  cpu time      0.0001: real time      0.0001
    MIXING:  cpu time      0.0000: real time      0.0000
    OFIELD:  cpu time      0.0000: real time      0.0000

  FORCE on cell =-STRESS in cart. coord.  units (eV):
  Direction    XX          YY          ZZ          XY          YZ          ZX
  --------------------------------------------------------------------------------------
  Alpha Z     1.59672     1.59672     1.59672
  Ewald     -44.32919   -44.32919   -44.32919    -0.00000    -0.00000    -0.00000
  Hartree     0.43458     0.43458     0.43458    -0.00000    -0.00000    -0.00000
  E(xc)     -13.06270   -13.06270   -13.06270    -0.00000     0.00000    -0.00000
  Local      -6.02138    -6.02138    -6.02138     0.00000    -0.00000     0.00000
  n-local    39.42855    39.29958    40.07210    -0.31563    -0.17872    -0.23604
  augment    -6.71686    -6.71686    -6.71686     0.00000     0.00000     0.00000
  Kinetic    47.81031    29.08395     8.59252    -6.80877     3.48506     1.20387
  Fock        0.00000     0.00000     0.00000     0.00000     0.00000     0.00000
  -------------------------------------------------------------------------------------
  Total      -0.00316    -0.00316    -0.00316     0.00000    -0.00000    -0.00000
  in kB      -0.34052    -0.34052    -0.34052     0.00000    -0.00000    -0.00000
  external pressure =       -0.34 kB  Pullay stress =        0.00 kB


 VOLUME and BASIS-vectors are now :
 -----------------------------------------------------------------------------
  energy-cutoff  :      400.00
  volume of cell :       14.85
      direct lattice vectors                 reciprocal lattice vectors
     2.457762133 -0.000000000  0.000000000     0.406874199  0.000000000  0.000000000
    -0.000000000  2.457762133  0.000000000     0.000000000  0.406874199  0.000000000
    -0.000000000 -0.000000000  2.457762133    -0.000000000 -0.000000000  0.406874199

  length of vectors
     2.457762133  2.457762133  2.457762133     0.406874199  0.406874199  0.406874199


 FORCES acting on ions
    electron-ion (+dipol)            ewald-force                    non-local-force                 convergence-correction
 -----------------------------------------------------------------------------------------------
   0.138E-14 0.117E-15 0.891E-16   -.328E-15 -.145E-15 0.718E-16   0.752E-24 0.377E-23 -.112E-23   -.931E-16 0.370E-16 -.913E-17
 -----------------------------------------------------------------------------------------------
   0.138E-14 0.117E-15 0.891E-16   -.328E-15 -.145E-15 0.718E-16   0.752E-24 0.377E-23 -.112E-23   -.931E-16 0.370E-16 -.913E-17
 
 
 POSITION                                       TOTAL-FORCE (eV/Angst)
 -----------------------------------------------------------------------------------
      0.00000      0.00000      0.00000        -0.000000     -0.000000     -0.000000
 -----------------------------------------------------------------------------------
    total drift:                                0.000000      0.000000      0.000000


--------------------------------------------------------------------------------------------------------



  FREE ENERGIE OF THE ION-ELECTRON SYSTEM (eV)
  ---------------------------------------------------
  free  energy   TOTEN  =        -4.38429398 eV

  energy  without entropy=       -4.36501119  energy(sigma->0) =       -4.37465258
 
 d Force = 0.0000000E+00[ 0.000E+00, 0.000E+00]  d Energy = 0.8372931E-05-0.837E-05
 d Force = 0.0000000E+00[ 0.000E+00, 0.000E+00]  d Ewald  = 0.4673149E-01-0.467E-01


--------------------------------------------------------------------------------------------------------


    POTLOK:  cpu time      0.0007: real time      0.0029


--------------------------------------------------------------------------------------------------------




--------------------------------------------------------------------------------------------------------


  
 reached required accuracy - stopping structural energy minimisation
     LOOP+:  cpu time      0.0060: real time      0.0349
    4ORBIT:  cpu time      0.0000: real time      0.0000

 total amount of memory used by VASP MPI-rank0    30187. kBytes
=======================================================================

   base      :      30000. kBytes
   nonl-proj :          5. kBytes
   fftplans  :         68. kBytes
   grid      :        101. kBytes
   one-center:          3. kBytes
   wavefun   :         10. kBytes
 
  
  
 General timing and accounting informations for this job:
 ========================================================
  
                  Total CPU time used (sec):        0.474
                            User time (sec):        0.274
                          System time (sec):        0.200
                         Elapsed time (sec):        2.673
  
                   Maximum memory used (kb):      123308.
                   Average memory used (kb):          N/A
  
                          Minor page faults:        13526
                          Major page faults:            1
                 Voluntary context switches:         1669
