Silicon                                 
           1
     1.000000    0.000000    0.000000
     0.000000    1.000000    0.000000
     0.000000    0.000000    1.000000
   Si
     1
Direct configuration=     1
   0.00000000  0.00000000  0.00000000
Silicon                                 
           1
    13.580914   -0.000000    0.000000
    -0.000000   13.580914    0.000000
    -0.000000   -0.000000   13.580914
   Si
     1
Direct configuration=     2
   0.00000000  0.00000000  0.00000000
Silicon                                 
           1
    12.841289   -0.000000    0.000000
    -0.000000   12.841289    0.000000
    -0.000000   -0.000000   12.841289
   Si
     1
Direct configuration=     3
   0.00000000  0.00000000  0.00000000
Silicon                                 
           1
    12.133032   -0.000000    0.000000
    -0.000000   12.133032    0.000000
    -0.000000   -0.000000   12.133032
   Si
     1
Direct configuration=     4
   0.00000000  0.00000000  0.00000000
Silicon                                 
           1
     6.566516   -0.000000    0.000000
    -0.000000    6.566516    0.000000
    -0.000000   -0.000000    6.566516
   Si
     1
Direct configuration=     5
   0.00000000  0.00000000  0.00000000
Silicon                                 
           1
     3.783258   -0.000000    0.000000
    -0.000000    3.783258    0.000000
    -0.000000   -0.000000    3.783258
   Si
     1
Direct configuration=     6
   0.00000000  0.00000000  0.00000000
Silicon                                 
           1
     2.391629   -0.000000    0.000000
    -0.000000    2.391629    0.000000
    -0.000000   -0.000000    2.391629
   Si
     1
Direct configuration=     7
   0.00000000  0.00000000  0.00000000
Silicon                                 
           1
     2.569393   -0.000000    0.000000
    -0.000000    2.569393    0.000000
    -0.000000   -0.000000    2.569393
   Si
     1
Direct configuration=     8
   0.00000000  0.00000000  0.00000000
Silicon                                 
           1
     2.467923   -0.000000    0.000000
    -0.000000    2.467923    0.000000
    -0.000000   -0.000000    2.467923
   Si
     1
Direct configuration=     9
   0.00000000  0.00000000  0.00000000
Silicon                                 
           1
     2.458626   -0.000000    0.000000
    -0.000000    2.458626    0.000000
    -0.000000   -0.000000    2.458626
   Si
     1
Direct configuration=    10
   0.00000000  0.00000000  0.00000000
Silicon                                 
           1
     2.457762   -0.000000    0.000000
    -0.000000    2.457762    0.000000
    -0.000000   -0.000000    2.457762
   Si
     1
Direct configuration=    11
   0.00000000  0.00000000  0.00000000
