DFT Groundstate Calculation             
   3.90000000000000     
     0.500000    0.500000    0.000000
     0.000000    0.500000    0.500000
     0.500000    0.000000    0.500000
   Si
     1
Direct
  0.000000  0.000000  0.000000
 
   32   32   32
 -2.4537     -2.1353     -1.2359     0.88346E-01  1.6164      3.1114      4.3716      5.2660      5.7479      5.8484    
  5.6565      5.2958      4.8954      4.5355      4.2516      4.0703      4.0080      4.0703      4.2516      4.5355    
  4.8954      5.2958      5.6565      5.8484      5.7479      5.2660      4.3716      3.1114      1.6164     0.88346E-01
 -1.2359     -2.1353     -2.1353     -1.5266     -.41640      1.0046      2.5053      3.8654      4.9191      5.5800    
  5.8428      5.7703      5.4712      5.0743      4.6896      4.3649      4.1306      4.0080      4.0080      4.1306    
  4.3649      4.6896      5.0743      5.4712      5.7703      5.8428      5.5800      4.9191      3.8654      2.5053    
  1.0046     -.41640     -1.5266     -2.1353     -1.2359     -.41640     0.78653      2.1677      3.5087      4.6247    
  5.3970      5.7854      5.8223      5.5946      5.2205      4.8212      4.4653      4.1859      4.0079      3.9469    
  4.0079      4.1859      4.4653      4.8212      5.2205      5.5946      5.8223      5.7854      5.3970      4.6247    
  3.5087      2.1677     0.78653     -.41640     -1.2359     -1.5266     0.88346E-01  1.0046      2.1677      3.3802    
  4.4562      5.2578      5.7161      5.8332      5.6705      5.3293      4.9267      4.5491      4.2336      4.0076    
  3.8899      3.8899      4.0076      4.2336      4.5491      4.9267      5.3293      5.6705      5.8332      5.7161    
  5.2578      4.4562      3.3802      2.1677      1.0046     0.88352E-01 -.41640     -.41640      1.6164      2.5053    
  3.5087      4.4562      5.2060      5.6708      5.8270      5.7104      5.4014      5.0047      4.6140      4.2721    
  4.0070      3.8395      3.7824      3.8395      4.0070      4.2721      4.6140      5.0047      5.4014      5.7104    
  5.8270      5.6708      5.2060      4.4562      3.5087      2.5053      1.6164      1.0046     0.78653      1.0046    
  3.1114      3.8654      4.6247      5.2578      5.6708      5.8226      5.7264      5.4414      5.0556      4.6597    
  4.3005      4.0060      3.7977      3.6900      3.6900      3.7977      4.0060      4.3005      4.6597      5.0556    
  5.4414      5.7264      5.8226      5.6708      5.2578      4.6247      3.8654      3.1114      2.5053      2.1677    
  2.1677      2.5053      4.3716      4.9191      5.3970      5.7161      5.8270      5.7264      5.4540      5.0804    
  4.6865      4.3190      4.0048      3.7655      3.6163      3.5656      3.6163      3.7655      4.0048      4.3190    
  4.6865      5.0804      5.4540      5.7264      5.8270      5.7161      5.3970      4.9191      4.3716      3.8654    
  3.5087      3.3802      3.5087      3.8654      5.2660      5.5800      5.7854      5.8332      5.7104      5.4414    
  5.0804      4.6954      4.3281      4.0039      3.7438      3.5629      3.4704      3.4704      3.5629      3.7438    
  4.0039      4.3281      4.6954      5.0804      5.4414      5.7104      5.8332      5.7854      5.5800      5.2660    
  4.9191      4.6247      4.4562      4.4562      4.6247      4.9191      5.7479      5.8428      5.8223      5.6705    
  5.4014      5.0556      4.6865      4.3281      4.0035      3.7329      3.5309      3.4065      3.3646      3.4065    
  3.5309      3.7329      4.0035      4.3281      4.6865      5.0556      5.4014      5.6705      5.8223      5.8428    
  5.7479      5.5800      5.3970      5.2578      5.2060      5.2578      5.3970      5.5800      5.8484      5.7703    
  5.5946      5.3293      5.0047      4.6597      4.3190      4.0039      3.7329      3.5202      3.3746      3.3009    
  3.3009      3.3746      3.5202      3.7329      4.0039      4.3190      4.6597      5.0047      5.3293      5.5946    
  5.7703      5.8484      5.8428      5.7854      5.7161      5.6708      5.6708      5.7161      5.7854      5.8428    
  5.6565      5.4712      5.2205      4.9267      4.6140      4.3005      4.0048      3.7438      3.5309      3.3746    
  3.2796      3.2478      3.2796      3.3746      3.5309      3.7438      4.0048      4.3005      4.6140      4.9267    
  5.2205      5.4712      5.6565      5.7703      5.8223      5.8332      5.8270      5.8226      5.8270      5.8332    
  5.8223      5.7703      5.2958      5.0743      4.8212      4.5491      4.2721      4.0060      3.7655      3.5629    
  3.4065      3.3009      3.2478      3.2478      3.3009      3.4065      3.5629      3.7655      4.0060      4.2721    
  4.5491      4.8212      5.0743      5.2958      5.4712      5.5946      5.6705      5.7104      5.7264      5.7264    
  5.7104      5.6705      5.5946      5.4712      4.8954      4.6896      4.4653      4.2336      4.0070      3.7977    
  3.6163      3.4704      3.3646      3.3009      3.2796      3.3009      3.3646      3.4704      3.6163      3.7977    
  4.0070      4.2336      4.4653      4.6896      4.8954      5.0743      5.2205      5.3293      5.4014      5.4414    
  5.4540      5.4414      5.4014      5.3293      5.2205      5.0743      4.5355      4.3649      4.1859      4.0076    
  3.8395      3.6900      3.5656      3.4704      3.4065      3.3746      3.3746      3.4065      3.4704      3.5656    
  3.6900      3.8395      4.0076      4.1859      4.3649      4.5355      4.6896      4.8212      4.9267      5.0047    
  5.0556      5.0804      5.0804      5.0556      5.0047      4.9267      4.8212      4.6896      4.2516      4.1306    
  4.0079      3.8899      3.7824      3.6900      3.6163      3.5629      3.5309      3.5202      3.5309      3.5629    
  3.6163      3.6900      3.7824      3.8899      4.0079      4.1306      4.2516      4.3649      4.4653      4.5491    
  4.6140      4.6597      4.6865      4.6954      4.6865      4.6597      4.6140      4.5491      4.4653      4.3649    
  4.0703      4.0080      3.9469      3.8899      3.8395      3.7977      3.7655      3.7438      3.7329      3.7329    
  3.7438      3.7655      3.7977      3.8395      3.8899      3.9469      4.0080      4.0703      4.1306      4.1859    
  4.2336      4.2721      4.3005      4.3190      4.3281      4.3281      4.3190      4.3005      4.2721      4.2336    
  4.1859      4.1306      4.0080      4.0080      4.0079      4.0076      4.0070      4.0060      4.0048      4.0039    
  4.0035      4.0039      4.0048      4.0060      4.0070      4.0076      4.0079      4.0080      4.0080      4.0080    
  4.0079      4.0076      4.0070      4.0060      4.0048      4.0039      4.0035      4.0039      4.0048      4.0060    
  4.0070      4.0076      4.0079      4.0080      4.0703      4.1306      4.1859      4.2336      4.2721      4.3005    
  4.3190      4.3281      4.3281      4.3190      4.3005      4.2721      4.2336      4.1859      4.1306      4.0703    
  4.0080      3.9469      3.8899      3.8395      3.7977      3.7655      3.7438      3.7329      3.7329      3.7438    
  3.7655      3.7977      3.8395      3.8899      3.9469      4.0080      4.2516      4.3649      4.4653      4.5491    
  4.6140      4.6597      4.6865      4.6954      4.6865      4.6597      4.6140      4.5491      4.4653      4.3649    
  4.2516      4.1306      4.0079      3.8899      3.7824      3.6900      3.6163      3.5629      3.5309      3.5202    
  3.5309      3.5629      3.6163      3.6900      3.7824      3.8899      4.0079      4.1306      4.5355      4.6896    
  4.8212      4.9267      5.0047      5.0556      5.0804      5.0804      5.0556      5.0047      4.9267      4.8212    
  4.6896      4.5355      4.3649      4.1859      4.0076      3.8395      3.6900      3.5656      3.4704      3.4065    
  3.3746      3.3746      3.4065      3.4704      3.5656      3.6900      3.8395      4.0076      4.1859      4.3649    
  4.8954      5.0743      5.2205      5.3293      5.4014      5.4414      5.4540      5.4414      5.4014      5.3293    
  5.2205      5.0743      4.8954      4.6896      4.4653      4.2336      4.0070      3.7977      3.6163      3.4704    
  3.3646      3.3009      3.2796      3.3009      3.3646      3.4704      3.6163      3.7977      4.0070      4.2336    
  4.4653      4.6896      5.2958      5.4712      5.5946      5.6705      5.7104      5.7264      5.7264      5.7104    
  5.6705      5.5946      5.4712      5.2958      5.0743      4.8212      4.5491      4.2721      4.0060      3.7655    
  3.5629      3.4065      3.3009      3.2478      3.2478      3.3009      3.4065      3.5629      3.7655      4.0060    
  4.2721      4.5491      4.8212      5.0743      5.6565      5.7703      5.8223      5.8332      5.8270      5.8226    
  5.8270      5.8332      5.8223      5.7703      5.6565      5.4712      5.2205      4.9267      4.6140      4.3005    
  4.0048      3.7438      3.5309      3.3746      3.2796      3.2478      3.2796      3.3746      3.5309      3.7438    
  4.0048      4.3005      4.6140      4.9267      5.2205      5.4712      5.8484      5.8428      5.7854      5.7161    
  5.6708      5.6708      5.7161      5.7854      5.8428      5.8484      5.7703      5.5946      5.3293      5.0047    
  4.6597      4.3190      4.0039      3.7329      3.5202      3.3746      3.3009      3.3009      3.3746      3.5202    
  3.7329      4.0039      4.3190      4.6597      5.0047      5.3293      5.5946      5.7703      5.7479      5.5800    
  5.3970      5.2578      5.2060      5.2578      5.3970      5.5800      5.7479      5.8428      5.8223      5.6705    
  5.4014      5.0556      4.6865      4.3281      4.0035      3.7329      3.5309      3.4065      3.3646      3.4065    
  3.5309      3.7329      4.0035      4.3281      4.6865      5.0556      5.4014      5.6705      5.8223      5.8428    
  5.2660      4.9191      4.6247      4.4562      4.4562      4.6247      4.9191      5.2660      5.5800      5.7854    
  5.8332      5.7104      5.4414      5.0804      4.6954      4.3281      4.0039      3.7438      3.5629      3.4704    
  3.4704      3.5629      3.7438      4.0039      4.3281      4.6954      5.0804      5.4414      5.7104      5.8332    
  5.7854      5.5800      4.3716      3.8654      3.5087      3.3802      3.5087      3.8654      4.3716      4.9191    
  5.3970      5.7161      5.8270      5.7264      5.4540      5.0804      4.6865      4.3190      4.0048      3.7655    
  3.6163      3.5656      3.6163      3.7655      4.0048      4.3190      4.6865      5.0804      5.4540      5.7264    
  5.8270      5.7161      5.3970      4.9191      3.1114      2.5053      2.1677      2.1677      2.5053      3.1114    
  3.8654      4.6247      5.2578      5.6708      5.8226      5.7264      5.4414      5.0556      4.6597      4.3005    
  4.0060      3.7977      3.6900      3.6900      3.7977      4.0060      4.3005      4.6597      5.0556      5.4414    
  5.7264      5.8226      5.6708      5.2578      4.6247      3.8654      1.6164      1.0046     0.78653      1.0046    
  1.6164      2.5053      3.5087      4.4562      5.2060      5.6708      5.8270      5.7104      5.4014      5.0047    
  4.6140      4.2721      4.0070      3.8395      3.7824      3.8395      4.0070      4.2721      4.6140      5.0047    
  5.4014      5.7104      5.8270      5.6708      5.2060      4.4562      3.5087      2.5053     0.88346E-01 -.41640    
 -.41640     0.88352E-01  1.0046      2.1677      3.3802      4.4562      5.2578      5.7161      5.8332      5.6705    
  5.3293      4.9267      4.5491      4.2336      4.0076      3.8899      3.8899      4.0076      4.2336      4.5491    
  4.9267      5.3293      5.6705      5.8332      5.7161      5.2578      4.4562      3.3802      2.1677      1.0046    
 -1.2359     -1.5266     -1.2359     -.41640     0.78653      2.1677      3.5087      4.6247      5.3970      5.7854    
  5.8223      5.5946      5.2205      4.8212      4.4653      4.1859      4.0079      3.9469      4.0079      4.1859    
  4.4653      4.8212      5.2205      5.5946      5.8223      5.7854      5.3970      4.6247      3.5087      2.1677    
 0.78653     -.41640     -2.1353     -2.1353     -1.5266     -.41640      1.0046      2.5053      3.8654      4.9191    
  5.5800      5.8428      5.7703      5.4712      5.0743      4.6896      4.3649      4.1306      4.0080      4.0080    
  4.1306      4.3649      4.6896      5.0743      5.4712      5.7703      5.8428      5.5800      4.9191      3.8654    
  2.5053      1.0046     -.41640     -1.5266     -2.1353     -1.5266     -.41640      1.0046      2.5053      3.8654    
  4.9191      5.5800      5.8428      5.7703      5.4712      5.0743      4.6896      4.3649      4.1306      4.0080    
  4.0080      4.1306      4.3649      4.6896      5.0743      5.4712      5.7703      5.8428      5.5800      4.9191    
  3.8654      2.5053      1.0046     -.41640     -1.5266     -2.1353     -1.5266     -.67964     0.56458      1.9952    
  3.3874      4.5509      5.3630      5.7816      5.8388      5.6223      5.2522      4.8522      4.4948      4.2138    
  4.0346      3.9731      4.0346      4.2138      4.4948      4.8522      5.2522      5.6223      5.8388      5.7816    
  5.3630      4.5509      3.3874      1.9952     0.56458     -.67964     -1.5266     -1.8268     -.41640     0.56458    
  1.8129      3.1195      4.2871      5.1691      5.6913      5.8537      5.7185      5.3894      4.9876      4.6071    
  4.2883      4.0594      3.9399      3.9399      4.0594      4.2883      4.6071      4.9876      5.3894      5.7185    
  5.8537      5.6912      5.1691      4.2871      3.1195      1.8129     0.56458     -.41640     -.95612     -.95612    
  1.0046      1.9952      3.1195      4.1913      5.0555      5.6151      5.8418      5.7707      5.4846      5.0927    
  4.6983      4.3512      4.0810      3.9098      3.8513      3.9098      4.0810      4.3512      4.6983      5.0927    
  5.4846      5.7707      5.8418      5.6151      5.0555      4.1913      3.1195      1.9952      1.0046     0.32489    
 0.82996E-01 0.32489      2.5053      3.3874      4.2871      5.0555      5.5856      5.8283      5.7938      5.5423    
  5.1664      4.7664      4.4005      4.0985      3.8841      3.7730      3.7730      3.8841      4.0985      4.4005    
  4.7664      5.1664      5.5423      5.7938      5.8283      5.5856      5.0555      4.2871      3.3874      2.5053    
  1.8010      1.4101      1.4101      1.8010      3.8654      4.5509      5.1691      5.6151      5.8283      5.7999    
  5.5689      5.2094      4.8113      4.4354      4.1116      3.8635      3.7081      3.6552      3.7081      3.8635    
  4.1116      4.4354      4.8113      5.2094      5.5689      5.7999      5.8283      5.6151      5.1691      4.5509    
  3.8654      3.2421      2.8067      2.6505      2.8067      3.2421      4.9191      5.3630      5.6913      5.8418    
  5.7938      5.5689      5.2235      4.8335      4.4561      4.1200      3.8485      3.6585      3.5610      3.5610    
  3.6585      3.8485      4.1200      4.4561      4.8335      5.2235      5.5689      5.7938      5.8418      5.6913    
  5.3630      4.9191      4.4522      4.0649      3.8458      3.8458      4.0649      4.4522      5.5800      5.7816    
  5.8537      5.7707      5.5423      5.2094      4.8335      4.4629      4.1242      3.8394      3.6253      3.4930    
  3.4483      3.4930      3.6253      3.8394      4.1242      4.4629      4.8335      5.2094      5.5423      5.7707    
  5.8537      5.7816      5.5800      5.3045      5.0289      4.8269      4.7529      4.8269      5.0289      5.3045    
  5.8428      5.8388      5.7185      5.4846      5.1664      4.8113      4.4561      4.1242      3.8363      3.6087    
  3.4521      3.3726      3.3726      3.4521      3.6087      3.8363      4.1242      4.4561      4.8113      5.1664    
  5.4846      5.7185      5.8388      5.8428      5.7544      5.6179      5.4863      5.4067      5.4067      5.4863    
  5.6179      5.7544      5.7703      5.6223      5.3894      5.0927      4.7664      4.4354      4.1200      3.8394    
  3.6087      3.4385      3.3347      3.2998      3.3347      3.4385      3.6087      3.8394      4.1200      4.4354    
  4.7664      5.0927      5.3894      5.6223      5.7703      5.8330      5.8290      5.7894      5.7481      5.7311    
  5.7481      5.7894      5.8290      5.8330      5.4712      5.2522      4.9876      4.6983      4.4005      4.1116    
  3.8485      3.6253      3.4521      3.3347      3.2755      3.2755      3.3347      3.4521      3.6253      3.8485    
  4.1116      4.4005      4.6983      4.9876      5.2522      5.4712      5.6289      5.7244      5.7693      5.7829    
  5.7840      5.7840      5.7829      5.7693      5.7244      5.6289      5.0743      4.8522      4.6071      4.3512    
  4.0985      3.8635      3.6585      3.4930      3.3726      3.2998      3.2755      3.2998      3.3726      3.4930    
  3.6585      3.8635      4.0985      4.3512      4.6071      4.8522      5.0743      5.2636      5.4099      5.5106    
  5.5714      5.6021      5.6112      5.6021      5.5714      5.5106      5.4099      5.2636      4.6896      4.4948    
  4.2883      4.0810      3.8841      3.7081      3.5610      3.4483      3.3726      3.3347      3.3347      3.3726    
  3.4483      3.5610      3.7081      3.8841      4.0810      4.2883      4.4948      4.6896      4.8636      5.0104    
  5.1266      5.2101      5.2625      5.2873      5.2873      5.2625      5.2101      5.1266      5.0104      4.8636    
  4.3649      4.2138      4.0594      3.9098      3.7730      3.6552      3.5610      3.4930      3.4521      3.4385    
  3.4521      3.4930      3.5610      3.6552      3.7730      3.9098      4.0594      4.2138      4.3649      4.5051    
  4.6281      4.7297      4.8078      4.8623      4.8941      4.9045      4.8941      4.8622      4.8078      4.7297    
  4.6281      4.5051      4.1306      4.0346      3.9399      3.8513      3.7730      3.7081      3.6585      3.6253    
  3.6087      3.6087      3.6253      3.6585      3.7081      3.7730      3.8513      3.9399      4.0346      4.1306    
  4.2228      4.3067      4.3785      4.4360      4.4783      4.5057      4.5191      4.5191      4.5057      4.4783    
  4.4360      4.3785      4.3067      4.2228      4.0080      3.9731      3.9399      3.9098      3.8841      3.8635    
  3.8485      3.8394      3.8363      3.8394      3.8485      3.8635      3.8841      3.9098      3.9399      3.9731    
  4.0080      4.0427      4.0753      4.1040      4.1275      4.1452      4.1572      4.1640      4.1662      4.1640    
  4.1572      4.1452      4.1275      4.1040      4.0753      4.0427      4.0080      4.0346      4.0594      4.0810    
  4.0985      4.1116      4.1200      4.1242      4.1242      4.1200      4.1116      4.0985      4.0810      4.0594    
  4.0346      4.0080      3.9808      3.9544      3.9296      3.9075      3.8887      3.8738      3.8635      3.8582    
  3.8582      3.8635      3.8738      3.8887      3.9075      3.9296      3.9544      3.9808      4.1306      4.2138    
  4.2883      4.3512      4.4005      4.4354      4.4561      4.4629      4.4561      4.4354      4.4005      4.3512    
  4.2883      4.2138      4.1306      4.0427      3.9544      3.8699      3.7932      3.7274      3.6747      3.6364    
  3.6133      3.6055      3.6133      3.6364      3.6747      3.7274      3.7932      3.8699      3.9544      4.0427    
  4.3649      4.4948      4.6071      4.6983      4.7664      4.8113      4.8335      4.8335      4.8113      4.7664    
  4.6983      4.6071      4.4948      4.3649      4.2228      4.0753      3.9296      3.7932      3.6724      3.5722    
  3.4955      3.4441      3.4183      3.4183      3.4441      3.4955      3.5722      3.6724      3.7932      3.9296    
  4.0753      4.2228      4.6896      4.8522      4.9876      5.0927      5.1664      5.2094      5.2235      5.2094    
  5.1664      5.0927      4.9876      4.8522      4.6896      4.5051      4.3067      4.1040      3.9075      3.7274    
  3.5722      3.4478      3.3579      3.3037      3.2857      3.3037      3.3579      3.4478      3.5722      3.7274    
  3.9075      4.1040      4.3067      4.5051      5.0743      5.2522      5.3894      5.4846      5.5423      5.5689    
  5.5689      5.5423      5.4846      5.3894      5.2522      5.0743      4.8636      4.6281      4.3785      4.1275    
  3.8887      3.6747      3.4955      3.3579      3.2652      3.2188      3.2188      3.2652      3.3579      3.4955    
  3.6747      3.8887      4.1275      4.3785      4.6281      4.8636      5.4712      5.6223      5.7185      5.7707    
  5.7938      5.7999      5.7938      5.7707      5.7185      5.6223      5.4712      5.2636      5.0104      4.7297    
  4.4360      4.1452      3.8738      3.6364      3.4441      3.3037      3.2188      3.1904      3.2188      3.3037    
  3.4441      3.6364      3.8738      4.1452      4.4360      4.7297      5.0104      5.2636      5.7703      5.8388    
  5.8537      5.8418      5.8283      5.8283      5.8418      5.8537      5.8388      5.7703      5.6289      5.4099    
  5.1266      4.8078      4.4783      4.1572      3.8635      3.6133      3.4183      3.2857      3.2188      3.2188    
  3.2857      3.4183      3.6133      3.8635      4.1572      4.4783      4.8078      5.1266      5.4099      5.6289    
  5.8428      5.7816      5.6912      5.6151      5.5856      5.6151      5.6913      5.7816      5.8428      5.8330    
  5.7244      5.5106      5.2101      4.8623      4.5057      4.1640      3.8582      3.6055      3.4183      3.3037    
  3.2652      3.3037      3.4183      3.6055      3.8582      4.1640      4.5057      4.8622      5.2101      5.5106    
  5.7244      5.8330      5.5800      5.3630      5.1691      5.0555      5.0555      5.1691      5.3630      5.5800    
  5.7544      5.8290      5.7693      5.5714      5.2625      4.8941      4.5191      4.1662      3.8582      3.6133    
  3.4441      3.3579      3.3579      3.4441      3.6133      3.8582      4.1662      4.5191      4.8941      5.2625    
  5.5714      5.7693      5.8290      5.7544      4.9191      4.5509      4.2871      4.1913      4.2871      4.5509    
  4.9191      5.3045      5.6179      5.7894      5.7829      5.6021      5.2873      4.9045      4.5191      4.1640    
  3.8635      3.6364      3.4955      3.4478      3.4955      3.6364      3.8635      4.1640      4.5191      4.9045    
  5.2873      5.6021      5.7829      5.7894      5.6179      5.3045      3.8654      3.3874      3.1195      3.1195    
  3.3874      3.8654      4.4522      5.0289      5.4863      5.7481      5.7840      5.6112      5.2873      4.8941    
  4.5057      4.1572      3.8738      3.6747      3.5722      3.5722      3.6747      3.8738      4.1572      4.5057    
  4.8941      5.2873      5.6112      5.7840      5.7481      5.4863      5.0289      4.4522      2.5053      1.9952    
  1.8129      1.9952      2.5053      3.2421      4.0649      4.8269      5.4067      5.7311      5.7840      5.6021    
  5.2625      4.8622      4.4783      4.1452      3.8887      3.7274      3.6724      3.7274      3.8887      4.1452    
  4.4783      4.8622      5.2625      5.6021      5.7840      5.7311      5.4067      4.8269      4.0649      3.2421    
  1.0046     0.56458     0.56458      1.0046      1.8010      2.8067      3.8458      4.7529      5.4067      5.7481    
  5.7829      5.5714      5.2101      4.8078      4.4360      4.1275      3.9075      3.7932      3.7932      3.9075    
  4.1275      4.4360      4.8078      5.2101      5.5714      5.7829      5.7481      5.4067      4.7529      3.8458    
  2.8067      1.8010     -.41640     -.67964     -.41640     0.32489      1.4101      2.6505      3.8458      4.8269    
  5.4863      5.7894      5.7693      5.5106      5.1266      4.7297      4.3785      4.1040      3.9296      3.8699    
  3.9296      4.1040      4.3785      4.7297      5.1266      5.5106      5.7693      5.7894      5.4863      4.8269    
  3.8458      2.6505      1.4101     0.32489     -1.5266     -1.5266     -.95612     0.82996E-01  1.4101      2.8067    
  4.0649      5.0289      5.6179      5.8290      5.7244      5.4099      5.0104      4.6281      4.3067      4.0753    
  3.9544      3.9544      4.0753      4.3067      4.6281      5.0104      5.4099      5.7244      5.8290      5.6179    
  5.0289      4.0649      2.8067      1.4101     0.82994E-01 -.95612     -2.1353     -1.8268     -.95612     0.32489    
  1.8010      3.2421      4.4522      5.3045      5.7544      5.8330      5.6289      5.2636      4.8636      4.5051    
  4.2228      4.0427      3.9808      4.0427      4.2228      4.5051      4.8636      5.2636      5.6289      5.8330    
  5.7544      5.3045      4.4522      3.2421      1.8010     0.32489     -.95612     -1.8268     -1.2359     -.41640    
 0.78653      2.1677      3.5087      4.6247      5.3970      5.7854      5.8223      5.5946      5.2205      4.8212    
  4.4653      4.1859      4.0079      3.9469      4.0079      4.1859      4.4653      4.8212      5.2205      5.5946    
  5.8223      5.7854      5.3970      4.6247      3.5087      2.1677     0.78653     -.41640     -1.2359     -1.5266    
 -.41640     0.56458      1.8129      3.1195      4.2871      5.1691      5.6913      5.8537      5.7185      5.3894    
  4.9876      4.6071      4.2883      4.0594      3.9399      3.9399      4.0594      4.2883      4.6071      4.9876    
  5.3894      5.7185      5.8537      5.6912      5.1691      4.2871      3.1195      1.8129     0.56458     -.41640    
 -.95612     -.95612     0.78653      1.8129      2.9797      4.0954      4.9998      5.5929      5.8447      5.7899    
  5.5123      5.1224      4.7268      4.3781      4.1062      3.9338      3.8748      3.9338      4.1062      4.3781    
  4.7268      5.1224      5.5123      5.7899      5.8447      5.5929      4.9998      4.0954      2.9797      1.8129    
 0.78653     0.82993E-01 -.16728     0.82994E-01  2.1677      3.1195      4.0954      4.9375      5.5316      5.8242    
  5.8241      5.5919      5.2226      4.8210      4.4518      4.1462      3.9287      3.8158      3.8158      3.9287    
  4.1462      4.4518      4.8210      5.2226      5.5919      5.8241      5.8242      5.5316      4.9375      4.0954    
  3.1195      2.1677      1.4101     0.99031     0.99031      1.4101      3.5087      4.2871      4.9998      5.5316    
  5.8147      5.8363      5.6352      5.2876      4.8882      4.5076      4.1780      3.9246      3.7655      3.7113    
  3.7655      3.9246      4.1780      4.5076      4.8882      5.2876      5.6352      5.8363      5.8147      5.5316    
  4.9998      4.2871      3.5087      2.8067      2.3185      2.1436      2.3185      2.8067      4.6247      5.1691    
  5.5929      5.8242      5.8363      5.6488      5.3193      4.9283      4.5446      4.2008      3.9215      3.7255    
  3.6246      3.6246      3.7255      3.9215      4.2008      4.5446      4.9283      5.3193      5.6488      5.8363    
  5.8242      5.5929      5.1691      4.6247      4.0649      3.6060      3.3478      3.3478      3.6060      4.0649    
  5.3970      5.6913      5.8447      5.8241      5.6352      5.3193      4.9416      4.5630      4.2144      3.9194    
  3.6966      3.5585      3.5117      3.5585      3.6966      3.9194      4.2144      4.5630      4.9416      5.3193    
  5.6352      5.8241      5.8447      5.6912      5.3970      5.0289      4.6738      4.4180      4.3249      4.4180    
  4.6738      5.0289      5.7854      5.8537      5.7899      5.5919      5.2876      4.9283      4.5630      4.2189    
  3.9184      3.6793      3.5142      3.4301      3.4301      3.5142      3.6793      3.9184      4.2189      4.5630    
  4.9283      5.2876      5.5919      5.7899      5.8537      5.7854      5.6179      5.4065      5.2164      5.1047    
  5.1047      5.2164      5.4065      5.6179      5.8223      5.7185      5.5123      5.2226      4.8882      4.5446    
  4.2144      3.9184      3.6736      3.4921      3.3810      3.3436      3.3810      3.4921      3.6736      3.9184    
  4.2144      4.5446      4.8882      5.2226      5.5123      5.7185      5.8223      5.8290      5.7657      5.6736    
  5.5962      5.5663      5.5962      5.6736      5.7657      5.8290      5.5946      5.3894      5.1224      4.8210    
  4.5076      4.2008      3.9194      3.6793      3.4921      3.3646      3.3003      3.3003      3.3646      3.4921    
  3.6793      3.9194      4.2008      4.5076      4.8210      5.1224      5.3894      5.5946      5.7244      5.7833    
  5.7906      5.7733      5.7570      5.7570      5.7733      5.7906      5.7833      5.7244      5.2205      4.9876    
  4.7268      4.4518      4.1780      3.9215      3.6966      3.5142      3.3810      3.3003      3.2733      3.3003    
  3.3810      3.5142      3.6966      3.9215      4.1780      4.4518      4.7268      4.9876      5.2205      5.4099    
  5.5451      5.6283      5.6707      5.6877      5.6917      5.6877      5.6707      5.6283      5.5451      5.4099    
  4.8212      4.6071      4.3781      4.1462      3.9246      3.7255      3.5585      3.4301      3.3436      3.3003    
  3.3003      3.3436      3.4301      3.5585      3.7255      3.9246      4.1462      4.3781      4.6071      4.8212    
  5.0104      5.1679      5.2877      5.3690      5.4170      5.4386      5.4386      5.4170      5.3690      5.2877    
  5.1679      5.0104      4.4653      4.2883      4.1062      3.9287      3.7655      3.6246      3.5117      3.4301    
  3.3810      3.3646      3.3810      3.4301      3.5117      3.6246      3.7655      3.9287      4.1062      4.2883    