DFT Groundstate Calculation             
   3.90000000000000     
     0.500000    0.500000    0.000000
     0.000000    0.500000    0.500000
     0.500000    0.000000    0.500000
   Si
     1
Direct
  0.000000  0.000000  0.000000
 
   32   32   32
 -.24537189929E+01 -.21352540982E+01 -.12359143844E+01 0.88346495194E-01 0.16163630446E+01
 0.31113858708E+01 0.43715701123E+01 0.52659710254E+01 0.57479486012E+01 0.58483636461E+01
 0.56565437933E+01 0.52958080016E+01 0.48954187596E+01 0.45354861149E+01 0.42516177640E+01
 0.40702866401E+01 0.40079885604E+01 0.40702866401E+01 0.42516177640E+01 0.45354861149E+01
 0.48954187596E+01 0.52958080016E+01 0.56565437933E+01 0.58483636461E+01 0.57479486012E+01
 0.52659710254E+01 0.43715701123E+01 0.31113858708E+01 0.16163630446E+01 0.88346495194E-01
 -.12359143844E+01 -.21352540982E+01 -.21352540982E+01 -.15265591159E+01 -.41639981809E+00
 0.10045715373E+01 0.25052756617E+01 0.38653681193E+01 0.49191450504E+01 0.55799885232E+01
 0.58428022844E+01 0.57703477698E+01 0.54712098392E+01 0.50743438257E+01 0.46895919243E+01
 0.43649151913E+01 0.41306008894E+01 0.40079950268E+01 0.40079931663E+01 0.41305983225E+01
 0.43649160369E+01 0.46895946896E+01 0.50743438915E+01 0.54712070786E+01 0.57703468049E+01
 0.58428049260E+01 0.55799907989E+01 0.49191437748E+01 0.38653662030E+01 0.25052771523E+01
 0.10045742551E+01 -.41640160451E+00 -.15265653593E+01 -.21352576863E+01 -.12359143844E+01
 -.41639981809E+00 0.78653201468E+00 0.21676818491E+01 0.35087093924E+01 0.46246963361E+01
 0.53969874219E+01 0.57854483798E+01 0.58223256009E+01 0.55945637072E+01 0.52205054508E+01
 0.48212185477E+01 0.44653182067E+01 0.41858906800E+01 0.40079333439E+01 0.39468873971E+01
 0.40079333916E+01 0.41858906929E+01 0.44653181461E+01 0.48212184934E+01 0.52205054948E+01
 0.55945638180E+01 0.58223256928E+01 0.57854484593E+01 0.53969874705E+01 0.46246961086E+01
 0.35087087028E+01 0.21676811563E+01 0.78653223964E+00 -.41639845791E+00 -.12359130156E+01
 -.15265653593E+01 0.88346495194E-01 0.10045715373E+01 0.21676818491E+01 0.33802400975E+01
 0.44561807321E+01 0.52577869713E+01 0.57161156402E+01 0.58332101919E+01 0.56705318493E+01
 0.53293312191E+01 0.49267041075E+01 0.45490564398E+01 0.42336271187E+01 0.40076382924E+01
 0.38899098523E+01 0.38899111565E+01 0.40076401365E+01 0.42336266074E+01 0.45490544842E+01
 0.49267039480E+01 0.53293331818E+01 0.56705327717E+01 0.58332084664E+01 0.57161136894E+01
 0.52577871216E+01 0.44561813962E+01 0.33802388751E+01 0.21676805276E+01 0.10045740863E+01
 0.88352296786E-01 -.41639845791E+00 -.41640160451E+00 0.16163630446E+01 0.25052756617E+01
 0.35087093924E+01 0.44561807321E+01 0.52060231402E+01 0.56708058635E+01 0.58270090288E+01
 0.57103989094E+01 0.54014181144E+01 0.50046975345E+01 0.46140227507E+01 0.42720910536E+01
 0.40069746036E+01 0.38395461010E+01 0.37823547302E+01 0.38395459337E+01 0.40069745729E+01
 0.42720912190E+01 0.46140228337E+01 0.50046974232E+01 0.54014180213E+01 0.57103989307E+01
 0.58270089696E+01 0.56708056531E+01 0.52060230461E+01 0.44561809553E+01 0.35087097333E+01
 0.25052757908E+01 0.16163629134E+01 0.10045740863E+01 0.78653223964E+00 0.10045742551E+01
 0.31113858708E+01 0.38653681193E+01 0.46246963361E+01 0.52577869713E+01 0.56708058635E+01
 0.58225713111E+01 0.57264287853E+01 0.54413514593E+01 0.50555680357E+01 0.46596800092E+01
 0.43005306081E+01 0.40059550443E+01 0.37976669216E+01 0.36900252612E+01 0.36900245626E+01
 0.37976658982E+01 0.40059552221E+01 0.43005315898E+01 0.46596801607E+01 0.50555670786E+01
 0.54413509134E+01 0.57264297158E+01 0.58225728826E+01 0.56708066227E+01 0.52577866275E+01
 0.46246955602E+01 0.38653672283E+01 0.31113846442E+01 0.25052757908E+01 0.21676805276E+01
 0.21676811563E+01 0.25052771523E+01 0.43715701123E+01 0.49191450504E+01 0.53969874219E+01
 0.57161156402E+01 0.58270090288E+01 0.57264287853E+01 0.54539884688E+01 0.50804466996E+01
 0.46865324653E+01 0.43190200997E+01 0.40048072690E+01 0.37655216691E+01 0.36162534356E+01
 0.35655838783E+01 0.36162534375E+01 0.37655216708E+01 0.40048072407E+01 0.43190200385E+01
 0.46865324547E+01 0.50804468292E+01 0.54539887156E+01 0.57264290223E+01 0.58270090818E+01
 0.57161153215E+01 0.53969867256E+01 0.49191444287E+01 0.43715702575E+01 0.38653672283E+01
 0.35087097333E+01 0.33802388751E+01 0.35087087028E+01 0.38653662030E+01 0.52659710254E+01
 0.55799885232E+01 0.57854483798E+01 0.58332101919E+01 0.57103989094E+01 0.54413514593E+01
 0.50804466996E+01 0.46953638815E+01 0.43280537755E+01 0.40038920500E+01 0.37438286510E+01
 0.35629382648E+01 0.34704007715E+01 0.34704009294E+01 0.35629385698E+01 0.37438287705E+01
 0.40038918823E+01 0.43280536430E+01 0.46953641185E+01 0.50804470098E+01 0.54413510412E+01
 0.57103975271E+01 0.58332088664E+01 0.57854485103E+01 0.55799902631E+01 0.52659729542E+01
 0.49191444287E+01 0.46246955602E+01 0.44561809553E+01 0.44561813962E+01 0.46246961086E+01
 0.49191437748E+01 0.57479486012E+01 0.58428022844E+01 0.58223256009E+01 0.56705318493E+01
 0.54014181144E+01 0.50555680357E+01 0.46865324653E+01 0.43280537755E+01 0.40035418333E+01
 0.37329233600E+01 0.35308563507E+01 0.34065257382E+01 0.33646191258E+01 0.34065257778E+01
 0.35308563848E+01 0.37329233782E+01 0.40035418627E+01 0.43280537741E+01 0.46865323069E+01
 0.50555677105E+01 0.54014178952E+01 0.56705320843E+01 0.58223262758E+01 0.58428029152E+01
 0.57479486745E+01 0.55799902631E+01 0.53969867256E+01 0.52577866275E+01 0.52060230461E+01
 0.52577871216E+01 0.53969874705E+01 0.55799907989E+01 0.58483636461E+01 0.57703477698E+01
 0.55945637072E+01 0.53293312191E+01 0.50046975345E+01 0.46596800092E+01 0.43190200997E+01
 0.40038920500E+01 0.37329233600E+01 0.35201650175E+01 0.33745751614E+01 0.33008567007E+01
 0.33008566879E+01 0.33745750982E+01 0.35201649018E+01 0.37329232517E+01 0.40038919566E+01
 0.43190199973E+01 0.46596801212E+01 0.50046983161E+01 0.53293326499E+01 0.55945647272E+01
 0.57703470713E+01 0.58483613414E+01 0.58428029152E+01 0.57854485103E+01 0.57161153215E+01
 0.56708066227E+01 0.56708056531E+01 0.57161136894E+01 0.57854484593E+01 0.58428049260E+01
 0.56565437933E+01 0.54712098392E+01 0.52205054508E+01 0.49267041075E+01 0.46140227507E+01
 0.43005306081E+01 0.40048072690E+01 0.37438286510E+01 0.35308563507E+01 0.33745751614E+01
 0.32795943673E+01 0.32477855164E+01 0.32795942867E+01 0.33745751109E+01 0.35308563638E+01
 0.37438286686E+01 0.40048073335E+01 0.43005308610E+01 0.46140231217E+01 0.49267042006E+01
 0.52205049753E+01 0.54712090798E+01 0.56565433980E+01 0.57703470713E+01 0.58223262758E+01
 0.58332088664E+01 0.58270090818E+01 0.58225728826E+01 0.58270089696E+01 0.58332084664E+01
 0.58223256928E+01 0.57703468049E+01 0.52958080016E+01 0.50743438257E+01 0.48212185477E+01
 0.45490564398E+01 0.42720910536E+01 0.40059550443E+01 0.37655216691E+01 0.35629382648E+01
 0.34065257382E+01 0.33008567007E+01 0.32477855164E+01 0.32477855379E+01 0.33008567343E+01
 0.34065258003E+01 0.35629384914E+01 0.37655220551E+01 0.40059551667E+01 0.42720903589E+01
 0.45490549867E+01 0.48212173047E+01 0.50743439325E+01 0.52958096208E+01 0.54712090798E+01
 0.55945647272E+01 0.56705320843E+01 0.57103975271E+01 0.57264290223E+01 0.57264297158E+01
 0.57103989307E+01 0.56705327717E+01 0.55945638180E+01 0.54712070786E+01 0.48954187596E+01
 0.46895919243E+01 0.44653182067E+01 0.42336271187E+01 0.40069746036E+01 0.37976669216E+01
 0.36162534356E+01 0.34704007715E+01 0.33646191258E+01 0.33008566879E+01 0.32795942867E+01
 0.33008567343E+01 0.33646191942E+01 0.34704008184E+01 0.36162533831E+01 0.37976666858E+01
 0.40069742307E+01 0.42336268882E+01 0.44653184467E+01 0.46895926094E+01 0.48954193869E+01
 0.50743439325E+01 0.52205049753E+01 0.53293326499E+01 0.54014178952E+01 0.54413510412E+01
 0.54539887156E+01 0.54413509134E+01 0.54014180213E+01 0.53293331818E+01 0.52205054948E+01
 0.50743438915E+01 0.45354861149E+01 0.43649151913E+01 0.41858906800E+01 0.40076382924E+01
 0.38395461010E+01 0.36900252612E+01 0.35655838783E+01 0.34704009294E+01 0.34065257778E+01
 0.33745750982E+01 0.33745751109E+01 0.34065258003E+01 0.34704008184E+01 0.35655834363E+01
 0.36900247233E+01 0.38395462723E+01 0.40076396709E+01 0.41858924753E+01 0.43649157984E+01
 0.45354848365E+01 0.46895926094E+01 0.48212173047E+01 0.49267042006E+01 0.50046983161E+01
 0.50555677105E+01 0.50804470098E+01 0.50804468292E+01 0.50555670786E+01 0.50046974232E+01
 0.49267039480E+01 0.48212184934E+01 0.46895946896E+01 0.42516177640E+01 0.41306008894E+01
 0.40079333439E+01 0.38899098523E+01 0.37823547302E+01 0.36900245626E+01 0.36162534375E+01
 0.35629385698E+01 0.35308563848E+01 0.35201649018E+01 0.35308563638E+01 0.35629384914E+01
 0.36162533831E+01 0.36900247233E+01 0.37823551377E+01 0.38899102045E+01 0.40079332463E+01
 0.41306002977E+01 0.42516170984E+01 0.43649157984E+01 0.44653184467E+01 0.45490549867E+01
 0.46140231217E+01 0.46596801212E+01 0.46865323069E+01 0.46953641185E+01 0.46865324547E+01
 0.46596801607E+01 0.46140228337E+01 0.45490544842E+01 0.44653181461E+01 0.43649160369E+01
 0.40702866401E+01 0.40079950268E+01 0.39468873971E+01 0.38899111565E+01 0.38395459337E+01
 0.37976658982E+01 0.37655216708E+01 0.37438287705E+01 0.37329233782E+01 0.37329232517E+01
 0.37438286686E+01 0.37655220551E+01 0.37976666858E+01 0.38395462723E+01 0.38899102045E+01
 0.39468854513E+01 0.40079936062E+01 0.40702870798E+01 0.41306002977E+01 0.41858924753E+01
 0.42336268882E+01 0.42720903589E+01 0.43005308610E+01 0.43190199973E+01 0.43280537741E+01
 0.43280536430E+01 0.43190200385E+01 0.43005315898E+01 0.42720912190E+01 0.42336266074E+01
 0.41858906929E+01 0.41305983225E+01 0.40079885604E+01 0.40079931663E+01 0.40079333916E+01
 0.40076401365E+01 0.40069745729E+01 0.40059552221E+01 0.40048072407E+01 0.40038918823E+01
 0.40035418627E+01 0.40038919566E+01 0.40048073335E+01 0.40059551667E+01 0.40069742307E+01
 0.40076396709E+01 0.40079332463E+01 0.40079936062E+01 0.40079892981E+01 0.40079936062E+01
 0.40079332463E+01 0.40076396709E+01 0.40069742307E+01 0.40059551667E+01 0.40048073335E+01
 0.40038919566E+01 0.40035418627E+01 0.40038918823E+01 0.40048072407E+01 0.40059552221E+01
 0.40069745729E+01 0.40076401365E+01 0.40079333916E+01 0.40079931663E+01 0.40702866401E+01
 0.41305983225E+01 0.41858906929E+01 0.42336266074E+01 0.42720912190E+01 0.43005315898E+01
 0.43190200385E+01 0.43280536430E+01 0.43280537741E+01 0.43190199973E+01 0.43005308610E+01
 0.42720903589E+01 0.42336268882E+01 0.41858924753E+01 0.41306002977E+01 0.40702870798E+01
 0.40079936062E+01 0.39468854513E+01 0.38899102045E+01 0.38395462723E+01 0.37976666858E+01
 0.37655220551E+01 0.37438286686E+01 0.37329232517E+01 0.37329233782E+01 0.37438287705E+01
 0.37655216708E+01 0.37976658982E+01 0.38395459337E+01 0.38899111565E+01 0.39468873971E+01
 0.40079950268E+01 0.42516177640E+01 0.43649160369E+01 0.44653181461E+01 0.45490544842E+01
 0.46140228337E+01 0.46596801607E+01 0.46865324547E+01 0.46953641185E+01 0.46865323069E+01
 0.46596801212E+01 0.46140231217E+01 0.45490549867E+01 0.44653184467E+01 0.43649157984E+01
 0.42516170984E+01 0.41306002977E+01 0.40079332463E+01 0.38899102045E+01 0.37823551377E+01
 0.36900247233E+01 0.36162533831E+01 0.35629384914E+01 0.35308563638E+01 0.35201649018E+01
 0.35308563848E+01 0.35629385698E+01 0.36162534375E+01 0.36900245626E+01 0.37823547302E+01
 0.38899098523E+01 0.40079333439E+01 0.41306008894E+01 0.45354861149E+01 0.46895946896E+01
 0.48212184934E+01 0.49267039480E+01 0.50046974232E+01 0.50555670786E+01 0.50804468292E+01
 0.50804470098E+01 0.50555677105E+01 0.50046983161E+01 0.49267042006E+01 0.48212173047E+01
 0.46895926094E+01 0.45354848365E+01 0.43649157984E+01 0.41858924753E+01 0.40076396709E+01
 0.38395462723E+01 0.36900247233E+01 0.35655834363E+01 0.34704008184E+01 0.34065258003E+01
 0.33745751109E+01 0.33745750982E+01 0.34065257778E+01 0.34704009294E+01 0.35655838783E+01
 0.36900252612E+01 0.38395461010E+01 0.40076382924E+01 0.41858906800E+01 0.43649151913E+01
 0.48954187596E+01 0.50743438915E+01 0.52205054948E+01 0.53293331818E+01 0.54014180213E+01
 0.54413509134E+01 0.54539887156E+01 0.54413510412E+01 0.54014178952E+01 0.53293326499E+01
 0.52205049753E+01 0.50743439325E+01 0.48954193869E+01 0.46895926094E+01 0.44653184467E+01
 0.42336268882E+01 0.40069742307E+01 0.37976666858E+01 0.36162533831E+01 0.34704008184E+01
 0.33646191942E+01 0.33008567343E+01 0.32795942867E+01 0.33008566879E+01 0.33646191258E+01
 0.34704007715E+01 0.36162534356E+01 0.37976669216E+01 0.40069746036E+01 0.42336271187E+01
 0.44653182067E+01 0.46895919243E+01 0.52958080016E+01 0.54712070786E+01 0.55945638180E+01
 0.56705327717E+01 0.57103989307E+01 0.57264297158E+01 0.57264290223E+01 0.57103975271E+01
 0.56705320843E+01 0.55945647272E+01 0.54712090798E+01 0.52958096208E+01 0.50743439325E+01
 0.48212173047E+01 0.45490549867E+01 0.42720903589E+01 0.40059551667E+01 0.37655220551E+01
 0.35629384914E+01 0.34065258003E+01 0.33008567343E+01 0.32477855379E+01 0.32477855164E+01
 0.33008567007E+01 0.34065257382E+01 0.35629382648E+01 0.37655216691E+01 0.40059550443E+01
 0.42720910536E+01 0.45490564398E+01 0.48212185477E+01 0.50743438257E+01 0.56565437933E+01
 0.57703468049E+01 0.58223256928E+01 0.58332084664E+01 0.58270089696E+01 0.58225728826E+01
 0.58270090818E+01 0.58332088664E+01 0.58223262758E+01 0.57703470713E+01 0.56565433980E+01
 0.54712090798E+01 0.52205049753E+01 0.49267042006E+01 0.46140231217E+01 0.43005308610E+01
 0.40048073335E+01 0.37438286686E+01 0.35308563638E+01 0.33745751109E+01 0.32795942867E+01
 0.32477855164E+01 0.32795943673E+01 0.33745751614E+01 0.35308563507E+01 0.37438286510E+01
 0.40048072690E+01 0.43005306081E+01 0.46140227507E+01 0.49267041075E+01 0.52205054508E+01
 0.54712098392E+01 0.58483636461E+01 0.58428049260E+01 0.57854484593E+01 0.57161136894E+01
 0.56708056531E+01 0.56708066227E+01 0.57161153215E+01 0.57854485103E+01 0.58428029152E+01
 0.58483613414E+01 0.57703470713E+01 0.55945647272E+01 0.53293326499E+01 0.50046983161E+01
 0.46596801212E+01 0.43190199973E+01 0.40038919566E+01 0.37329232517E+01 0.35201649018E+01
 0.33745750982E+01 0.33008566879E+01 0.33008567007E+01 0.33745751614E+01 0.35201650175E+01
 0.37329233600E+01 0.40038920500E+01 0.43190200997E+01 0.46596800092E+01 0.50046975345E+01
 0.53293312191E+01 0.55945637072E+01 0.57703477698E+01 0.57479486012E+01 0.55799907989E+01
 0.53969874705E+01 0.52577871216E+01 0.52060230461E+01 0.52577866275E+01 0.53969867256E+01
 0.55799902631E+01 0.57479486745E+01 0.58428029152E+01 0.58223262758E+01 0.56705320843E+01
 0.54014178952E+01 0.50555677105E+01 0.46865323069E+01 0.43280537741E+01 0.40035418627E+01
 0.37329233782E+01 0.35308563848E+01 0.34065257778E+01 0.33646191258E+01 0.34065257382E+01
 0.35308563507E+01 0.37329233600E+01 0.40035418333E+01 0.43280537755E+01 0.46865324653E+01
 0.50555680357E+01 0.54014181144E+01 0.56705318493E+01 0.58223256009E+01 0.58428022844E+01
 0.52659710254E+01 0.49191437748E+01 0.46246961086E+01 0.44561813962E+01 0.44561809553E+01
 0.46246955602E+01 0.49191444287E+01 0.52659729542E+01 0.55799902631E+01 0.57854485103E+01
 0.58332088664E+01 0.57103975271E+01 0.54413510412E+01 0.50804470098E+01 0.46953641185E+01
 0.43280536430E+01 0.40038918823E+01 0.37438287705E+01 0.35629385698E+01 0.34704009294E+01
 0.34704007715E+01 0.35629382648E+01 0.37438286510E+01 0.40038920500E+01 0.43280537755E+01
 0.46953638815E+01 0.50804466996E+01 0.54413514593E+01 0.57103989094E+01 0.58332101919E+01
 0.57854483798E+01 0.55799885232E+01 0.43715701123E+01 0.38653662030E+01 0.35087087028E+01
 0.33802388751E+01 0.35087097333E+01 0.38653672283E+01 0.43715702575E+01 0.49191444287E+01
 0.53969867256E+01 0.57161153215E+01 0.58270090818E+01 0.57264290223E+01 0.54539887156E+01
 0.50804468292E+01 0.46865324547E+01 0.43190200385E+01 0.40048072407E+01 0.37655216708E+01
 0.36162534375E+01 0.35655838783E+01 0.36162534356E+01 0.37655216691E+01 0.40048072690E+01
 0.43190200997E+01 0.46865324653E+01 0.50804466996E+01 0.54539884688E+01 0.57264287853E+01
 0.58270090288E+01 0.57161156402E+01 0.53969874219E+01 0.49191450504E+01 0.31113858708E+01
 0.25052771523E+01 0.21676811563E+01 0.21676805276E+01 0.25052757908E+01 0.31113846442E+01
 0.38653672283E+01 0.46246955602E+01 0.52577866275E+01 0.56708066227E+01 0.58225728826E+01
 0.57264297158E+01 0.54413509134E+01 0.50555670786E+01 0.46596801607E+01 0.43005315898E+01
 0.40059552221E+01 0.37976658982E+01 0.36900245626E+01 0.36900252612E+01 0.37976669216E+01
 0.40059550443E+01 0.43005306081E+01 0.46596800092E+01 0.50555680357E+01 0.54413514593E+01
 0.57264287853E+01 0.58225713111E+01 0.56708058635E+01 0.52577869713E+01 0.46246963361E+01
 0.38653681193E+01 0.16163630446E+01 0.10045742551E+01 0.78653223964E+00 0.10045740863E+01
 0.16163629134E+01 0.25052757908E+01 0.35087097333E+01 0.44561809553E+01 0.52060230461E+01
 0.56708056531E+01 0.58270089696E+01 0.57103989307E+01 0.54014180213E+01 0.50046974232E+01
 0.46140228337E+01 0.42720912190E+01 0.40069745729E+01 0.38395459337E+01 0.37823547302E+01
 0.38395461010E+01 0.40069746036E+01 0.42720910536E+01 0.46140227507E+01 0.50046975345E+01
 0.54014181144E+01 0.57103989094E+01 0.58270090288E+01 0.56708058635E+01 0.52060231402E+01
 0.44561807321E+01 0.35087093924E+01 0.25052756617E+01 0.88346495194E-01 -.41640160451E+00
 -.41639845791E+00 0.88352296786E-01 0.10045740863E+01 0.21676805276E+01 0.33802388751E+01
 0.44561813962E+01 0.52577871216E+01 0.57161136894E+01 0.58332084664E+01 0.56705327717E+01
 0.53293331818E+01 0.49267039480E+01 0.45490544842E+01 0.42336266074E+01 0.40076401365E+01
 0.38899111565E+01 0.38899098523E+01 0.40076382924E+01 0.42336271187E+01 0.45490564398E+01
 0.49267041075E+01 0.53293312191E+01 0.56705318493E+01 0.58332101919E+01 0.57161156402E+01
 0.52577869713E+01 0.44561807321E+01 0.33802400975E+01 0.21676818491E+01 0.10045715373E+01
 -.12359143844E+01 -.15265653593E+01 -.12359130156E+01 -.41639845791E+00 0.78653223964E+00
 0.21676811563E+01 0.35087087028E+01 0.46246961086E+01 0.53969874705E+01 0.57854484593E+01
 0.58223256928E+01 0.55945638180E+01 0.52205054948E+01 0.48212184934E+01 0.44653181461E+01
 0.41858906929E+01 0.40079333916E+01 0.39468873971E+01 0.40079333439E+01 0.41858906800E+01
 0.44653182067E+01 0.48212185477E+01 0.52205054508E+01 0.55945637072E+01 0.58223256009E+01
 0.57854483798E+01 0.53969874219E+01 0.46246963361E+01 0.35087093924E+01 0.21676818491E+01
 0.78653201468E+00 -.41639981809E+00 -.21352540982E+01 -.21352576863E+01 -.15265653593E+01
 -.41640160451E+00 0.10045742551E+01 0.25052771523E+01 0.38653662030E+01 0.49191437748E+01
 0.55799907989E+01 0.58428049260E+01 0.57703468049E+01 0.54712070786E+01 0.50743438915E+01
 0.46895946896E+01 0.43649160369E+01 0.41305983225E+01 0.40079931663E+01 0.40079950268E+01
 0.41306008894E+01 0.43649151913E+01 0.46895919243E+01 0.50743438257E+01 0.54712098392E+01
 0.57703477698E+01 0.58428022844E+01 0.55799885232E+01 0.49191450504E+01 0.38653681193E+01
 0.25052756617E+01 0.10045715373E+01 -.41639981809E+00 -.15265591159E+01 -.21352541672E+01
 -.15265592274E+01 -.41639988621E+00 0.10045715155E+01 0.25052756329E+01 0.38653680955E+01
 0.49191450794E+01 0.55799885746E+01 0.58428022899E+01 0.57703477459E+01 0.54712098499E+01
 0.50743438571E+01 0.46895919172E+01 0.43649151633E+01 0.41306009007E+01 0.40079950595E+01
 0.40079931594E+01 0.41305982938E+01 0.43649160480E+01 0.46895947235E+01 0.50743438866E+01
 0.54712070508E+01 0.57703468139E+01 0.58428049553E+01 0.55799907919E+01 0.49191437564E+01
 0.38653662413E+01 0.25052772309E+01 0.10045743039E+01 -.41640158643E+00 -.15265653312E+01
 -.21352576777E+01 -.15265592274E+01 -.67963619494E+00 0.56458261566E+00 0.19951643778E+01
 0.33874366584E+01 0.45508933460E+01 0.53629872981E+01 0.57816421840E+01 0.58388095645E+01
 0.56223135978E+01 0.52521734081E+01 0.48522355483E+01 0.44948190363E+01 0.42137826354E+01
 0.40346207666E+01 0.39731302743E+01 0.40346207257E+01 0.42137826827E+01 0.44948189634E+01
 0.48522351151E+01 0.52521730761E+01 0.56223140389E+01 0.58388103946E+01 0.57816423360E+01
 0.53629870207E+01 0.45508944681E+01 0.33874397194E+01 0.19951664336E+01 0.56457977118E+00
 -.67964370270E+00 -.15265658586E+01 -.18268120625E+01 -.41639988621E+00 0.56458261566E+00
 0.18128778251E+01 0.31194826231E+01 0.42870594621E+01 0.51690704876E+01 0.56912502500E+01
 0.58536845923E+01 0.57184887442E+01 0.53894153032E+01 0.49875704427E+01 0.46071485127E+01
 0.42883309179E+01 0.40593592712E+01 0.39399001780E+01 0.39399016120E+01 0.40593613020E+01
 0.42883302889E+01 0.46071461115E+01 0.49875699686E+01 0.53894174808E+01 0.57184901458E+01
 0.58536830338E+01 0.56912483465E+01 0.51690716723E+01 0.42870625857E+01 0.31194835373E+01
 0.18128753994E+01 0.56457989799E+00 -.41640057444E+00 -.95611926399E+00 -.95611947256E+00
 0.10045715155E+01 0.19951643778E+01 0.31194826231E+01 0.41913449701E+01 0.50554858142E+01
 0.56150553506E+01 0.58417878794E+01 0.57707270823E+01 0.54846337793E+01 0.50926584391E+01
 0.46982741293E+01 0.43511962794E+01 0.40809724743E+01 0.39098357229E+01 0.38512934830E+01
 0.39098354839E+01 0.40809724908E+01 0.43511966181E+01 0.46982742641E+01 0.50926581610E+01
 0.54846335639E+01 0.57707272475E+01 0.58417879601E+01 0.56150547359E+01 0.50554846741E+01
 0.41913442025E+01 0.31194830426E+01 0.19951660807E+01 0.10045737701E+01 0.32489386528E+00
 0.82996223105E-01 0.32489226518E+00 0.25052756329E+01 0.33874366584E+01 0.42870594621E+01
 0.50554858142E+01 0.55856371617E+01 0.58282875516E+01 0.57937953736E+01 0.55423093779E+01
 0.51664171690E+01 0.47664205816E+01 0.44004744646E+01 0.40985288193E+01 0.38840915521E+01
 0.37729723186E+01 0.37729713760E+01 0.38840903069E+01 0.40985293694E+01 0.44004759091E+01
 0.47664205153E+01 0.51664156697E+01 0.55423088324E+01 0.57937964587E+01 0.58282880945E+01
 0.55856358335E+01 0.50554845847E+01 0.42870606350E+01 0.33874390683E+01 0.25052761211E+01
 0.18009973258E+01 0.14101110301E+01 0.14101123226E+01 0.18009992191E+01 0.38653680955E+01
 0.45508933460E+01 0.51690704876E+01 0.56150553506E+01 0.58282875516E+01 0.57999187485E+01
 0.55689104069E+01 0.52094412638E+01 0.48113105108E+01 0.44354138298E+01 0.41115632763E+01
 0.38634653764E+01 0.37080614616E+01 0.36551977161E+01 0.37080615015E+01 0.38634653390E+01
 0.41115631208E+01 0.44354136845E+01 0.48113104685E+01 0.52094411808E+01 0.55689101535E+01
 0.57999186464E+01 0.58282881609E+01 0.56150566053E+01 0.51690714014E+01 0.45508929656E+01
 0.38653665561E+01 0.32420791475E+01 0.28067178405E+01 0.26504905677E+01 0.28067188277E+01
 0.32420808382E+01 0.49191450794E+01 0.53629872981E+01 0.56912502500E+01 0.58417878794E+01
 0.57937953736E+01 0.55689104069E+01 0.52234915607E+01 0.48334832935E+01 0.44560976260E+01
 0.41200409913E+01 0.38484627414E+01 0.36585279747E+01 0.35610320546E+01 0.35610322695E+01
 0.36585282802E+01 0.38484626611E+01 0.41200406631E+01 0.44560975502E+01 0.48334834973E+01
 0.52234915776E+01 0.55689101229E+01 0.57937952675E+01 0.58417881344E+01 0.56912502513E+01
 0.53629866260E+01 0.49191445451E+01 0.44521838187E+01 0.40649241960E+01 0.38457546578E+01
 0.38457537141E+01 0.40649224360E+01 0.44521830457E+01 0.55799885746E+01 0.57816421840E+01
 0.58536845923E+01 0.57707270823E+01 0.55423093779E+01 0.52094412638E+01 0.48334832935E+01
 0.44629251502E+01 0.41241780649E+01 0.38393678009E+01 0.36253184150E+01 0.34930132557E+01
 0.34483132733E+01 0.34930133068E+01 0.36253186077E+01 0.38393680330E+01 0.41241781153E+01
 0.44629250775E+01 0.48334833544E+01 0.52094412926E+01 0.55423087243E+01 0.57707255830E+01
 0.58536832818E+01 0.57816424226E+01 0.55799904549E+01 0.53044786869E+01 0.50288611966E+01
 0.48268716040E+01 0.47528729876E+01 0.48268714008E+01 0.50288600501E+01 0.53044765353E+01
 0.58428022899E+01 0.58388095645E+01 0.57184887442E+01 0.54846337793E+01 0.51664171690E+01
 0.48113105108E+01 0.44560976260E+01 0.41241780649E+01 0.38363225096E+01 0.36087102189E+01
 0.34521228526E+01 0.33725689339E+01 0.33725690512E+01 0.34521230175E+01 0.36087101974E+01
 0.38363224327E+01 0.41241781761E+01 0.44560977479E+01 0.48113101877E+01 0.51664164200E+01
 0.54846333268E+01 0.57184892195E+01 0.58388106832E+01 0.58428031070E+01 0.57543735803E+01
 0.56178581622E+01 0.54862660336E+01 0.54066638210E+01 0.54066641272E+01 0.54862668083E+01
 0.56178589243E+01 0.57543736709E+01 0.57703477459E+01 0.56223135978E+01 0.53894153032E+01
 0.50926584391E+01 0.47664205816E+01 0.44354138298E+01 0.41200409913E+01 0.38393678009E+01
 0.36087102189E+01 0.34385061699E+01 0.33346564005E+01 0.32998059525E+01 0.33346561513E+01
 0.34385059187E+01 0.36087101953E+01 0.38393678998E+01 0.41200408345E+01 0.44354133454E+01
 0.47664204186E+01 0.50926593826E+01 0.53894170993E+01 0.56223147607E+01 0.57703470114E+01
 0.58330476510E+01 0.58289978811E+01 0.57893779040E+01 0.57480970311E+01 0.57311049150E+01
 0.57480964635E+01 0.57893781101E+01 0.58289996060E+01 0.58330497920E+01 0.54712098499E+01
 0.52521734081E+01 0.49875704427E+01 0.46982741293E+01 0.44004744646E+01 0.41115632763E+01
 0.38484627414E+01 0.36253184150E+01 0.34521228526E+01 0.33346564005E+01 0.32755151684E+01
 0.32755150406E+01 0.33346562119E+01 0.34521228649E+01 0.36253185424E+01 0.38484627625E+01
 0.41115632946E+01 0.44004747586E+01 0.46982745546E+01 0.49875704237E+01 0.52521727232E+01
 0.54712090827E+01 0.56289232089E+01 0.57243530656E+01 0.57693389368E+01 0.57829337412E+01
 0.57839565561E+01 0.57839566137E+01 0.57829336649E+01 0.57693384637E+01 0.57243525609E+01
 0.56289233277E+01 0.50743438571E+01 0.48522355483E+01 0.46071485127E+01 0.43511962794E+01
 0.40985288193E+01 0.38634653764E+01 0.36585279747E+01 0.34930132557E+01 0.33725689339E+01
 0.32998059525E+01 0.32755150406E+01 0.32998063270E+01 0.33725691783E+01 0.34930132039E+01
 0.36585281155E+01 0.38634660221E+01 0.40985293157E+01 0.43511955905E+01 0.46071466314E+01
 0.48522338797E+01 0.50743438967E+01 0.52635887692E+01 0.54098538963E+01 0.55105773823E+01
 0.55714483703E+01 0.56021451477E+01 0.56112496738E+01 0.56021460093E+01 0.55714489652E+01
 0.55105765949E+01 0.54098518735E+01 0.52635869996E+01 0.46895919172E+01 0.44948190363E+01
 0.42883309179E+01 0.40809724743E+01 0.38840915521E+01 0.37080614616E+01 0.35610320546E+01
 0.34483132733E+01 0.33725690512E+01 0.33346561513E+01 0.33346562119E+01 0.33725691783E+01
 0.34483133765E+01 0.35610320955E+01 0.37080614045E+01 0.38840913206E+01 0.40809720980E+01
 0.42883306811E+01 0.44948192696E+01 0.46895925561E+01 0.48636008108E+01 0.50104420536E+01
 0.51265600917E+01 0.52101316358E+01 0.52624989261E+01 0.52872786078E+01 0.52872785550E+01
 0.52624989608E+01 0.52101319888E+01 0.51265605397E+01 0.50104420890E+01 0.48636002890E+01
 0.43649151633E+01 0.42137826354E+01 0.40593592712E+01 0.39098357229E+01 0.37729723186E+01
 0.36551977161E+01 0.35610322695E+01 0.34930133068E+01 0.34521230175E+01 0.34385059187E+01
 0.34521228649E+01 0.34930132039E+01 0.35610320955E+01 0.36551971267E+01 0.37729715851E+01
 0.39098358662E+01 0.40593608269E+01 0.42137846008E+01 0.43649158153E+01 0.45051151396E+01
 0.46281437682E+01 0.47297406811E+01 0.48078272821E+01 0.48622505495E+01 0.48940563492E+01
 0.49044808666E+01 0.48940558920E+01 0.48622498966E+01 0.48078271548E+01 0.47297417678E+01
 0.46281456861E+01 0.45051163615E+01 0.41306009007E+01 0.40346207666E+01 0.39399001780E+01
 0.38512934830E+01 0.37729713760E+01 0.37080615015E+01 0.36585282802E+01 0.36253186077E+01
 0.36087101974E+01 0.36087101953E+01 0.36253185424E+01 0.36585281155E+01 0.37080614045E+01
 0.37729715851E+01 0.38512939656E+01 0.39399005443E+01 0.40346206281E+01 0.41306002914E+01
 0.42228198339E+01 0.43066725677E+01 0.43785052037E+01 0.44360055345E+01 0.44783067223E+01
 0.45057120361E+01 0.45190766898E+01 0.45190766930E+01 0.45057119598E+01 0.44783064363E+01
 0.44360051032E+01 0.43785049402E+01 0.43066727755E+01 0.42228204627E+01 0.40079950595E+01
 0.39731302743E+01 0.39399016120E+01 0.39098354839E+01 0.38840903069E+01 0.38634653390E+01
 0.38484626611E+01 0.38393680330E+01 0.38363224327E+01 0.38393678998E+01 0.38484627625E+01
 0.38634660221E+01 0.38840913206E+01 0.39098358662E+01 0.39399005443E+01 0.39731282046E+01
 0.40079936115E+01 0.40426788896E+01 0.40752553213E+01 0.41039574472E+01 0.41274832480E+01
 0.41452091238E+01 0.41572053167E+01 0.41640026926E+01 0.41661856000E+01 0.41640026196E+01
 0.41572055940E+01 0.41452096154E+01 0.41274830236E+01 0.41039559908E+01 0.40752535781E+01
 0.40426784910E+01 0.40079931594E+01 0.40346207257E+01 0.40593613020E+01 0.40809724908E+01
 0.40985293694E+01 0.41115631208E+01 0.41200406631E+01 0.41241781153E+01 0.41241781761E+01
 0.41200408345E+01 0.41115632946E+01 0.40985293157E+01 0.40809720980E+01 0.40593608269E+01
 0.40346206281E+01 0.40079936115E+01 0.39808217051E+01 0.39543510410E+01 0.39296275229E+01
 0.39074971196E+01 0.38886719368E+01 0.38737975568E+01 0.38634666856E+01 0.38581623512E+01
 0.38581623424E+01 0.38634666918E+01 0.38737976707E+01 0.38886722312E+01 0.39074974834E+01
 0.39296276398E+01 0.39543506778E+01 0.39808210427E+01 0.41305982938E+01 0.42137826827E+01
 0.42883302889E+01 0.43511966181E+01 0.44004759091E+01 0.44354136845E+01 0.44560975502E+01
 0.44629250775E+01 0.44560977479E+01 0.44354133454E+01 0.44004747586E+01 0.43511955905E+01
 0.42883306811E+01 0.42137846008E+01 0.41306002914E+01 0.40426788896E+01 0.39543510410E+01
 0.38699154072E+01 0.37932285064E+01 0.37274050595E+01 0.36746719542E+01 0.36363958778E+01
 0.36132625237E+01 0.36055323876E+01 0.36132627957E+01 0.36363958868E+01 0.36746714873E+01
 0.37274047667E+01 0.37932292537E+01 0.38699170787E+01 0.39543522996E+01 0.40426784294E+01
 0.43649160480E+01 0.44948189634E+01 0.46071461115E+01 0.46982742641E+01 0.47664205153E+01
 0.48113104685E+01 0.48334834973E+01 0.48334833544E+01 0.48113101877E+01 0.47664204186E+01
 0.46982745546E+01 0.46071466314E+01 0.44948192696E+01 0.43649158153E+01 0.42228198339E+01
 0.40752553213E+01 0.39296275229E+01 0.37932285064E+01 0.36724473741E+01 0.35721676656E+01
 0.34955217441E+01 0.34440712128E+01 0.34183203564E+01 0.34183203466E+01 0.34440712129E+01
 0.34955217471E+01 0.35721675450E+01 0.36724470564E+01 0.37932281961E+01 0.39296275806E+01