   1   1   0   0
  0.1482975E+02  0.2757716E-09  0.2757716E-09  0.2757716E-09  0.5000000E-15
  1.000000000000000E-004
  CAR 
 DFT Groundstate Calculation             
     37.66972283     -6.38173051  301      9.86051029      1.00000000
     -6.382  0.0000E+00  0.0000E+00
     -6.235  0.0000E+00  0.0000E+00
     -6.088  0.0000E+00  0.0000E+00
     -5.941  0.0000E+00  0.0000E+00
     -5.794  0.0000E+00  0.0000E+00
     -5.648  0.0000E+00  0.0000E+00
     -5.501  0.0000E+00  0.0000E+00
     -5.354  0.0000E+00  0.0000E+00
     -5.207  0.0000E+00  0.0000E+00
     -5.060  0.0000E+00  0.0000E+00
     -4.913  0.0000E+00  0.0000E+00
     -4.767  0.0000E+00  0.0000E+00
     -4.620  0.3346E-14  0.4913E-15
     -4.473  0.3244E-05  0.4764E-06
     -4.326  0.7008E-02  0.1030E-02
     -4.179  0.3545E-01  0.6235E-02
     -4.032  0.5683E-01  0.1458E-01
     -3.885  0.7306E-01  0.2531E-01
     -3.739  0.7239E-01  0.3594E-01
     -3.592  0.9338E-01  0.4965E-01
     -3.445  0.9916E-01  0.6421E-01
     -3.298  0.1167E+00  0.8134E-01
     -3.151  0.9906E-01  0.9588E-01
     -3.004  0.1332E+00  0.1154E+00
     -2.858  0.1158E+00  0.1324E+00
     -2.711  0.1544E+00  0.1551E+00
     -2.564  0.1341E+00  0.1748E+00
     -2.417  0.1336E+00  0.1944E+00
     -2.270  0.1712E+00  0.2196E+00
     -2.123  0.1750E+00  0.2453E+00
     -1.977  0.1298E+00  0.2643E+00
     -1.830  0.1840E+00  0.2913E+00
     -1.683  0.1864E+00  0.3187E+00
     -1.536  0.1667E+00  0.3432E+00
     -1.389  0.1801E+00  0.3696E+00
     -1.242  0.2061E+00  0.3999E+00
     -1.096  0.1856E+00  0.4271E+00
     -0.949  0.1963E+00  0.4560E+00
     -0.802  0.1911E+00  0.4840E+00
     -0.655  0.2514E+00  0.5209E+00
     -0.508  0.1838E+00  0.5479E+00
     -0.361  0.2075E+00  0.5784E+00
     -0.215  0.2405E+00  0.6137E+00
     -0.068  0.2289E+00  0.6473E+00
      0.079  0.2369E+00  0.6821E+00
      0.226  0.2004E+00  0.7115E+00
      0.373  0.2491E+00  0.7481E+00
      0.520  0.2552E+00  0.7856E+00
      0.667  0.2683E+00  0.8250E+00
      0.813  0.2230E+00  0.8577E+00
      0.960  0.2407E+00  0.8930E+00
      1.107  0.2520E+00  0.9300E+00
      1.254  0.3217E+00  0.9773E+00
      1.401  0.2141E+00  0.1009E+01
      1.548  0.3002E+00  0.1053E+01
      1.694  0.2613E+00  0.1091E+01
      1.841  0.2388E+00  0.1126E+01
      1.988  0.3308E+00  0.1175E+01
      2.135  0.3096E+00  0.1220E+01
      2.282  0.2610E+00  0.1259E+01
      2.429  0.3205E+00  0.1306E+01
      2.575  0.2595E+00  0.1344E+01
      2.722  0.3418E+00  0.1394E+01
      2.869  0.2856E+00  0.1436E+01
      3.016  0.3131E+00  0.1482E+01
      3.163  0.2446E+00  0.1518E+01
      3.310  0.2340E+00  0.1552E+01
      3.456  0.3578E+00  0.1605E+01
      3.603  0.3104E+00  0.1650E+01
      3.750  0.3589E+00  0.1703E+01
      3.897  0.2909E+00  0.1746E+01
      4.044  0.2478E+00  0.1782E+01
      4.191  0.3405E+00  0.1832E+01
      4.337  0.3937E+00  0.1890E+01
      4.484  0.3213E+00  0.1937E+01
      4.631  0.3551E+00  0.1989E+01
      4.778  0.2875E+00  0.2031E+01
      4.925  0.3380E+00  0.2081E+01
      5.072  0.4388E+00  0.2145E+01
      5.218  0.2469E+00  0.2182E+01
      5.365  0.3329E+00  0.2231E+01
      5.512  0.3681E+00  0.2285E+01
      5.659  0.3596E+00  0.2337E+01
      5.806  0.3673E+00  0.2391E+01
      5.953  0.2888E+00  0.2434E+01
      6.100  0.4530E+00  0.2500E+01
      6.246  0.3314E+00  0.2549E+01
      6.393  0.4327E+00  0.2613E+01
      6.540  0.3753E+00  0.2668E+01
      6.687  0.3597E+00  0.2720E+01
      6.834  0.3731E+00  0.2775E+01
      6.981  0.2962E+00  0.2819E+01
      7.127  0.4093E+00  0.2879E+01
      7.274  0.3471E+00  0.2930E+01
      7.421  0.4190E+00  0.2991E+01
      7.568  0.3781E+00  0.3047E+01
      7.715  0.4391E+00  0.3111E+01
      7.862  0.4609E+00  0.3179E+01
      8.008  0.2970E+00  0.3223E+01
      8.155  0.3342E+00  0.3272E+01
      8.302  0.4669E+00  0.3340E+01
      8.449  0.4289E+00  0.3403E+01
      8.596  0.4040E+00  0.3463E+01
      8.743  0.4469E+00  0.3528E+01
      8.889  0.3996E+00  0.3587E+01
      9.036  0.3687E+00  0.3641E+01
      9.183  0.3336E+00  0.3690E+01
      9.330  0.4727E+00  0.3759E+01
      9.477  0.5750E+00  0.3844E+01
      9.624  0.3983E+00  0.3902E+01
      9.770  0.3985E+00  0.3961E+01
      9.917  0.3881E+00  0.4018E+01
     10.064  0.4235E+00  0.4080E+01
     10.211  0.4760E+00  0.4150E+01
     10.358  0.4734E+00  0.4219E+01
     10.505  0.4673E+00  0.4288E+01
     10.651  0.4294E+00  0.4351E+01
     10.798  0.4523E+00  0.4417E+01
     10.945  0.4959E+00  0.4490E+01
     11.092  0.4045E+00  0.4550E+01
     11.239  0.5074E+00  0.4624E+01
     11.386  0.4695E+00  0.4693E+01
     11.533  0.4187E+00  0.4755E+01
     11.679  0.5771E+00  0.4839E+01
     11.826  0.4536E+00  0.4906E+01
     11.973  0.5226E+00  0.4983E+01
     12.120  0.4343E+00  0.5046E+01
     12.267  0.4876E+00  0.5118E+01
     12.414  0.5383E+00  0.5197E+01
     12.560  0.4976E+00  0.5270E+01
     12.707  0.6025E+00  0.5359E+01
     12.854  0.5337E+00  0.5437E+01
     13.001  0.4681E+00  0.5506E+01
     13.148  0.6823E+00  0.5606E+01
     13.295  0.5526E+00  0.5687E+01
     13.441  0.5202E+00  0.5763E+01
     13.588  0.5853E+00  0.5849E+01
     13.735  0.5803E+00  0.5935E+01
     13.882  0.6053E+00  0.6024E+01
     14.029  0.3744E+00  0.6079E+01
     14.176  0.4415E+00  0.6143E+01
     14.322  0.6812E+00  0.6243E+01
     14.469  0.5098E+00  0.6318E+01
     14.616  0.3995E+00  0.6377E+01
     14.763  0.5161E+00  0.6453E+01
     14.910  0.4468E+00  0.6518E+01
     15.057  0.4855E+00  0.6590E+01
     15.203  0.4965E+00  0.6662E+01
     15.350  0.4606E+00  0.6730E+01
     15.497  0.4656E+00  0.6798E+01
     15.644  0.5017E+00  0.6872E+01
     15.791  0.4916E+00  0.6944E+01
     15.938  0.3319E+00  0.6993E+01
     16.085  0.5582E+00  0.7075E+01
     16.231  0.5456E+00  0.7155E+01
     16.378  0.4911E+00  0.7227E+01
     16.525  0.4489E+00  0.7293E+01
     16.672  0.4359E+00  0.7357E+01
     16.819  0.5135E+00  0.7433E+01
     16.966  0.5372E+00  0.7511E+01
     17.112  0.5693E+00  0.7595E+01
     17.259  0.4448E+00  0.7660E+01
     17.406  0.5387E+00  0.7739E+01
     17.553  0.4517E+00  0.7806E+01
     17.700  0.7118E+00  0.7910E+01
     17.847  0.4828E+00  0.7981E+01
     17.993  0.4716E+00  0.8050E+01
     18.140  0.5149E+00  0.8126E+01
     18.287  0.6561E+00  0.8222E+01
     18.434  0.4636E+00  0.8290E+01
     18.581  0.5271E+00  0.8368E+01
     18.728  0.4978E+00  0.8441E+01
     18.874  0.6211E+00  0.8532E+01
     19.021  0.6117E+00  0.8622E+01
     19.168  0.5192E+00  0.8698E+01
     19.315  0.4213E+00  0.8760E+01
     19.462  0.6819E+00  0.8860E+01
     19.609  0.5009E+00  0.8934E+01
     19.755  0.4966E+00  0.9007E+01
     19.902  0.4505E+00  0.9073E+01
     20.049  0.7455E+00  0.9182E+01
     20.196  0.6107E+00  0.9272E+01
     20.343  0.6260E+00  0.9364E+01
     20.490  0.5528E+00  0.9445E+01
     20.636  0.7213E+00  0.9551E+01
     20.783  0.5694E+00  0.9635E+01
     20.930  0.5929E+00  0.9722E+01
     21.077  0.5417E+00  0.9801E+01
     21.224  0.5321E+00  0.9879E+01
     21.371  0.7168E+00  0.9985E+01
     21.518  0.5977E+00  0.1007E+02
     21.664  0.5643E+00  0.1016E+02
     21.811  0.5848E+00  0.1024E+02
     21.958  0.4470E+00  0.1031E+02
     22.105  0.6803E+00  0.1041E+02
     22.252  0.6117E+00  0.1050E+02
     22.399  0.5531E+00  0.1058E+02
     22.545  0.4985E+00  0.1065E+02
     22.692  0.5320E+00  0.1073E+02
     22.839  0.6756E+00  0.1083E+02
     22.986  0.8159E+00  0.1095E+02
     23.133  0.8396E+00  0.1107E+02
     23.280  0.7150E+00  0.1118E+02
     23.426  0.5462E+00  0.1126E+02
     23.573  0.6691E+00  0.1135E+02
     23.720  0.6007E+00  0.1144E+02
     23.867  0.6343E+00  0.1154E+02
     24.014  0.7545E+00  0.1165E+02
     24.161  0.6587E+00  0.1174E+02
     24.307  0.7349E+00  0.1185E+02
     24.454  0.5136E+00  0.1193E+02
     24.601  0.6909E+00  0.1203E+02
     24.748  0.4610E+00  0.1210E+02
     24.895  0.7509E+00  0.1221E+02
     25.042  0.6259E+00  0.1230E+02
     25.188  0.5376E+00  0.1238E+02
     25.335  0.9131E+00  0.1251E+02
     25.482  0.8275E+00  0.1263E+02
     25.629  0.6626E+00  0.1273E+02
     25.776  0.5298E+00  0.1281E+02
     25.923  0.4973E+00  0.1288E+02
     26.070  0.7041E+00  0.1298E+02
     26.216  0.6150E+00  0.1307E+02
     26.363  0.7768E+00  0.1319E+02
     26.510  0.6833E+00  0.1329E+02
     26.657  0.4975E+00  0.1336E+02
     26.804  0.5112E+00  0.1344E+02
     26.951  0.5709E+00  0.1352E+02
     27.097  0.6034E+00  0.1361E+02
     27.244  0.7773E+00  0.1372E+02
     27.391  0.4840E+00  0.1379E+02
     27.538  0.4632E+00  0.1386E+02
     27.685  0.5278E+00  0.1394E+02
     27.832  0.6832E+00  0.1404E+02
     27.978  0.5559E+00  0.1412E+02
     28.125  0.5754E+00  0.1421E+02
     28.272  0.4378E+00  0.1427E+02
     28.419  0.4724E+00  0.1434E+02
     28.566  0.4288E+00  0.1440E+02
     28.713  0.4350E+00  0.1447E+02
     28.859  0.6479E+00  0.1456E+02
     29.006  0.6332E+00  0.1466E+02
     29.153  0.5967E+00  0.1474E+02
     29.300  0.4422E+00  0.1481E+02
     29.447  0.4961E+00  0.1488E+02
     29.594  0.5717E+00  0.1496E+02
     29.740  0.4914E+00  0.1504E+02
     29.887  0.5295E+00  0.1511E+02
     30.034  0.4097E+00  0.1517E+02
     30.181  0.3946E+00  0.1523E+02
     30.328  0.3436E+00  0.1528E+02
     30.475  0.3309E+00  0.1533E+02
     30.621  0.2956E+00  0.1537E+02
     30.768  0.3130E+00  0.1542E+02
     30.915  0.2634E+00  0.1546E+02
     31.062  0.2272E+00  0.1549E+02
     31.209  0.2984E+00  0.1554E+02
     31.356  0.2213E+00  0.1557E+02
     31.503  0.1727E+00  0.1559E+02
     31.649  0.2614E+00  0.1563E+02
     31.796  0.2010E+00  0.1566E+02
     31.943  0.1357E+00  0.1568E+02
     32.090  0.2020E+00  0.1571E+02
     32.237  0.1843E+00  0.1574E+02
     32.384  0.1980E+00  0.1577E+02
     32.530  0.1540E+00  0.1579E+02
     32.677  0.1537E+00  0.1581E+02
     32.824  0.9916E-01  0.1583E+02
     32.971  0.9951E-01  0.1584E+02
     33.118  0.1459E+00  0.1586E+02
     33.265  0.1584E+00  0.1589E+02
     33.411  0.1262E+00  0.1591E+02
     33.558  0.8462E-01  0.1592E+02
     33.705  0.4463E-01  0.1592E+02
     33.852  0.8132E-01  0.1594E+02
     33.999  0.8942E-01  0.1595E+02
     34.146  0.8053E-01  0.1596E+02
     34.292  0.4323E-01  0.1597E+02
     34.439  0.4042E-01  0.1597E+02
     34.586  0.3542E-01  0.1598E+02
     34.733  0.4323E-01  0.1599E+02
     34.880  0.1554E-01  0.1599E+02
     35.027  0.1975E-01  0.1599E+02
     35.173  0.4028E-01  0.1600E+02
     35.320  0.2620E-02  0.1600E+02
     35.467  0.8075E-02  0.1600E+02
     35.614  0.1066E-01  0.1600E+02
     35.761  0.1733E-02  0.1600E+02
     35.908  0.7649E-05  0.1600E+02
     36.055  0.1000E-13  0.1600E+02
     36.201  0.0000E+00  0.1600E+02
     36.348  0.0000E+00  0.1600E+02
     36.495  0.0000E+00  0.1600E+02
     36.642  0.0000E+00  0.1600E+02
     36.789  0.0000E+00  0.1600E+02
     36.936  0.0000E+00  0.1600E+02
     37.082  0.0000E+00  0.1600E+02
     37.229  0.0000E+00  0.1600E+02
     37.376  0.0000E+00  0.1600E+02
     37.523  0.0000E+00  0.1600E+02
     37.670  0.0000E+00  0.1600E+02
