    1    1    1    1
  0.1482975E+02  0.2757716E-09  0.2757716E-09  0.2757716E-09  0.5000000E-15
  1.000000000000000E-004
  CAR 
 DFT Groundstate Calculation             
      4    624      8
 
  0.0000000E+00  0.0000000E+00  0.0000000E+00  0.4555394E-04
      1         -4.379392   1.000000
      2         20.692690   0.000000
      3         20.692691   0.000000
      4         20.692691   0.000000
      5         21.682257   0.000000
      6         21.682257   0.000000
      7         21.682257   0.000000
      8         26.962728   0.000000
 
  0.3571429E-01  0.1283886E-17 -0.5067578E-14  0.3644315E-03
      1         -4.342847   1.000000
      2         19.850211   0.000000
      3         20.455603   0.000000
      4         20.455604   0.000000
      5         21.965084   0.000000
      6         21.965085   0.000000
      7         22.199748   0.000000
      8         27.269828   0.000000
 
  0.7142857E-01 -0.2115981E-17  0.5183011E-15  0.3644315E-03
      1         -4.233266   1.000000
      2         18.488869   0.000000
      3         20.042462   0.000000
      4         20.042463   0.000000
      5         22.507461   0.000000
      6         22.507462   0.000000
      7         22.661071   0.000000
      8         27.708656   0.000000
 
  0.1071429E+00 -0.7453592E-18 -0.4559599E-14  0.3644315E-03
      1         -4.050770   1.000000
      2         17.016444   0.000000
      3         19.636000   0.000000
      4         19.636001   0.000000
      5         22.854196   0.000000
      6         23.094460   0.000000
      7         23.094461   0.000000
      8         27.144996   0.000000
 
  0.1428571E+00  0.2783183E-18  0.4579948E-14  0.3644315E-03
      1         -3.795570   1.000000
      2         15.515473   0.000000
      3         19.271685   0.000000
      4         19.271686   0.000000
      5         22.889490   0.000000
      6         23.598425   0.000000
      7         23.598427   0.000000
      8         26.673898   0.000000
 
  0.1785714E+00 -0.5463426E-17 -0.5050638E-15  0.3644315E-03
      1         -3.467978   1.000000
      2         14.022812   0.000000
      3         18.958814   0.000000
      4         18.958815   0.000000
      5         22.852204   0.000000
      6         23.805059   0.000000
      7         23.805062   0.000000
      8         26.558684   0.000000
 
  0.2142857E+00  0.4407341E-17  0.5139189E-14  0.3644315E-03
      1         -3.068379   1.000000
      2         12.558330   0.000000
      3         18.700207   0.000000
      4         18.700208   0.000000
      5         22.791333   0.000000
      6         23.583587   0.000000
      7         23.583591   0.000000
      8         26.957193   0.000000
 
  0.2500000E+00 -0.1334403E-17  0.6805454E-16  0.3644315E-03
      1         -2.597274   1.000000
      2         11.133862   0.000000
      3         18.496053   0.000000
      4         18.496054   0.000000
      5         22.734444   0.000000
      6         23.115285   0.000000
      7         23.115288   0.000000
      8         27.701742   0.000000
 
  0.2857143E+00  0.7495530E-17 -0.5016264E-14  0.3644315E-03
      1         -2.055288   1.000000
      2          9.757124   0.998273
      3         18.344846   0.000000
      4         18.344847   0.000000
      5         22.580847   0.000000
      6         22.580850   0.000000
      7         22.697087   0.000000
      8         27.775249   0.000000
 
  0.3214286E+00  0.3141565E-17  0.6137642E-15  0.3644315E-03
      1         -1.443232   1.000000
      2          8.433485   1.000000
      3         18.243374   0.000000
      4         18.243375   0.000000
      5         22.060127   0.000000
      6         22.060130   0.000000
      7         22.687026   0.000000
      8         27.171122   0.000000
 
  0.3571429E+00 -0.1906290E-17 -0.4498310E-14  0.3644315E-03
      1         -0.762243   1.000000
      2          7.167173   1.000000
      3         18.186276   0.000000
      4         18.186277   0.000000
      5         21.589631   0.000000
      6         21.589634   0.000000
      7         22.705713   0.000000
      8         26.631430   0.000000
 
  0.3928571E+00  0.1247476E-16  0.4619900E-14  0.3644315E-03
      1         -0.014192   1.000000
      2          5.962098   1.000000
      3         18.165194   0.000000
      4         18.165195   0.000000
      5         21.191938   0.000000
      6         21.191940   0.000000
      7         22.748187   0.000000
      8         26.173395   0.000000
 
  0.4285714E+00  0.8120793E-17 -0.4914796E-15  0.3644315E-03
      1          0.796726   1.000000
      2          4.823895   1.000000
      3         18.168078   0.000000
      4         18.168079   0.000000
      5         20.886328   0.000000
      6         20.886331   0.000000
      7         22.802330   0.000000
      8         25.817337   0.000000
 
  0.4642857E+00  0.3072939E-17  0.5137854E-14  0.3644315E-03
      1          1.653521   1.000000
      2          3.770388   1.000000
      3         18.179675   0.000000
      4         18.179676   0.000000
      5         20.691847   0.000000
      6         20.691849   0.000000
      7         22.848984   0.000000
      8         25.587591   0.000000
 
  0.5000000E+00 -0.2668805E-17  0.1361091E-15  0.1822157E-03
      1          2.304151   1.000000
      2          3.054144   1.000000
      3         18.185618   0.000000
      4         18.185619   0.000000
      5         20.624770   0.000000
      6         20.624773   0.000000
      7         22.867676   0.000000
      8         25.507564   0.000000
 
  0.3571429E-01  0.3571429E-01  0.5472090E-17  0.2733236E-03
      1         -4.330669   1.000000
      2         19.986522   0.000000
      3         19.986522   0.000000
      4         20.573542   0.000000
      5         21.385514   0.000000
      6         22.449519   0.000000
      7         22.449519   0.000000
      8         27.357644   0.000000
 
  0.7142857E-01  0.3571429E-01 -0.5064022E-14  0.1093294E-02
      1         -4.245436   1.000000
      2         18.940108   0.000000
      3         19.512012   0.000000
      4         20.447366   0.000000
      5         21.461640   0.000000
      6         22.973208   0.000000
      7         23.026567   0.000000
      8         27.214290   0.000000
 
  0.1071429E+00  0.3571429E-01  0.5183011E-15  0.1093294E-02
      1         -4.087246   1.000000
      2         17.524253   0.000000
      3         19.076142   0.000000
      4         20.115517   0.000000
      5         21.933231   0.000000
      6         23.290250   0.000000
      7         23.628299   0.000000
      8         26.525418   0.000000
 
  0.1428571E+00  0.3571429E-01 -0.9956093E-15  0.1093294E-02
      1         -3.856290   1.000000
      2         16.036894   0.000000
      3         18.691524   0.000000
      4         19.756872   0.000000
      5         22.409594   0.000000
      6         23.446924   0.000000
      7         24.173139   0.000000
      8         25.908961   0.000000
 
  0.1785714E+00  0.3571429E-01  0.4607010E-14  0.1093294E-02
      1         -3.552837   1.000000
      2         14.542703   0.000000
      3         18.362951   0.000000
      4         19.428328   0.000000
      5         22.685990   0.000000
      6         23.496927   0.000000
      7         24.488087   0.000000
      8         25.591489   0.000000
 
  0.2142857E+00  0.3571429E-01 -0.4776552E-15  0.1093294E-02
      1         -3.177244   1.000000
      2         13.069348   0.000000
      3         18.092443   0.000000
      4         19.142446   0.000000
      5         22.676171   0.000000
      6         23.349677   0.000000
      7         24.388114   0.000000
      8         25.819903   0.000000
 
  0.2500000E+00  0.3571429E-01  0.5152720E-14  0.1093294E-02
      1         -2.729977   1.000000
      2         11.631832   0.000000
      3         17.880684   0.000000
      4         18.901171   0.000000
      5         22.384168   0.000000
      6         23.159066   0.000000
      7         23.973951   0.000000
      8         26.474059   0.000000
 
  0.2857143E+00  0.3571429E-01  0.1228718E-15  0.1093294E-02
      1         -2.211612   1.000000
      2         10.239359   0.000000
      3         17.727530   0.000000
      4         18.701457   0.000000
      5         21.921712   0.000000
      6         23.062128   0.000000
      7         23.444514   0.000000
      8         27.287171   0.000000
 
  0.3214286E+00  0.3571429E-01 -0.5126592E-14  0.1093294E-02
      1         -1.622891   1.000000
      2          8.898125   1.000000
      3         17.632117   0.000000
      4         18.536011   0.000000
      5         21.443168   0.000000
      6         22.900821   0.000000
      7         23.022373   0.000000
      8         27.540443   0.000000
 
  0.3571429E+00  0.3571429E-01  0.5589470E-15  0.1093294E-02
      1         -0.964813   1.000000
      2          7.612724   1.000000
      3         17.592825   0.000000
      4         18.393024   0.000000
      5         21.023035   0.000000
      6         22.385890   0.000000
      7         23.018878   0.000000
      8         27.077809   0.000000
 
  0.3928571E+00  0.3571429E-01 -0.1010821E-14  0.1093294E-02
      1         -0.238923   1.000000
      2          6.387112   1.000000
      3         17.607009   0.000000
      4         18.256887   0.000000
      5         20.700370   0.000000
      6         21.921091   0.000000
      7         23.041939   0.000000
      8         26.621449   0.000000
 
  0.4285714E+00  0.3571429E-01  0.4674718E-14  0.1093294E-02
      1          0.551740   1.000000
      2          5.225969   1.000000
      3         17.670611   0.000000
      4         18.112682   0.000000
      5         20.500396   0.000000
      6         21.519938   0.000000
      7         23.079745   0.000000
      8         26.249788   0.000000
 
  0.4642857E+00  0.3571429E-01 -0.4921735E-15  0.1093294E-02
      1          1.397460   1.000000
      2          4.140030   1.000000
      3         17.777468   0.000000
      4         17.954320   0.000000
      5         20.434252   0.000000
      6         21.193691   0.000000
      7         23.115240   0.000000
      8         25.993063   0.000000
 
  0.5000000E+00  0.3571429E-01  0.5192672E-14  0.1093294E-02
      1          2.215215   1.000000
      2          3.212959   1.000000
      3         17.788971   0.000000
      4         17.918458   0.000000
      5         20.497251   0.000000
      6         20.954172   0.000000
      7         23.129439   0.000000
      8         25.875626   0.000000
 
 -0.4642857E+00  0.3571429E-01 -0.1361091E-15  0.1093294E-02
      1          1.966493   1.000000
      2          3.483544   1.000000
      3         17.632169   0.000000
      4         18.081004   0.000000
      5         20.674801   0.000000
      6         20.815211   0.000000
      7         23.111058   0.000000
      8         25.910760   0.000000
 
 -0.4285714E+00  0.3571429E-01 -0.5248877E-14  0.1093294E-02
      1          1.110862   1.000000
      2          4.492165   1.000000
      3         17.499905   0.000000
      4         18.250086   0.000000
      5         20.791884   0.000000
      6         20.950664   0.000000
      7         23.064871   0.000000
      8         26.093176   0.000000
 
 -0.3928571E+00  0.3571429E-01  0.4921735E-15  0.1093294E-02
      1          0.281311   1.000000
      2          5.605433   1.000000
      3         17.404623   0.000000
      4         18.412769   0.000000
      5         20.895975   0.000000
      6         21.310911   0.000000
      7         23.007871   0.000000
      8         26.402774   0.000000
 
 -0.3571429E+00  0.3571429E-01 -0.1132412E-14  0.1093294E-02
      1         -0.488291   1.000000
      2          6.788736   1.000000
      3         17.354918   0.000000
      4         18.565015   0.000000
      5         21.128776   0.000000
      6         21.743879   0.000000
      7         22.958430   0.000000
      8         26.814583   0.000000
 
 -0.3214286E+00  0.3571429E-01  0.4553127E-14  0.1093294E-02
      1         -1.191805   1.000000
      2          8.034702   1.000000
      3         17.356414   0.000000
      4         18.714246   0.000000
      5         21.477439   0.000000
      6         22.238078   0.000000
      7         22.929647   0.000000
      8         27.302039   0.000000
 
 -0.2857143E+00  0.3571429E-01 -0.6408259E-15  0.1093294E-02
      1         -1.826898   1.000000
      2          9.339143   1.000000
      3         17.412710   0.000000
      4         18.874472   0.000000
      5         21.917215   0.000000
      6         22.775199   0.000000
      7         22.931717   0.000000
      8         27.819879   0.000000
 
 -0.2500000E+00  0.3571429E-01  0.5016264E-14  0.1093294E-02
      1         -2.392265   1.000000
      2         10.697987   0.000000
      3         17.526040   0.000000
      4         19.059579   0.000000
      5         22.410947   0.000000
      6         22.944869   0.000000
      7         23.350808   0.000000
      8         27.264050   0.000000
 
 -0.2142857E+00  0.3571429E-01 -0.1323727E-16  0.1093294E-02
      1         -2.887002   1.000000
      2         12.106238   0.000000
      3         17.697669   0.000000
      4         19.279944   0.000000
      5         22.890776   0.000000
      6         22.987007   0.000000
      7         23.889178   0.000000
      8         26.442526   0.000000
 
 -0.1785714E+00  0.3571429E-01 -0.5084372E-14  0.1093294E-02
      1         -3.310435   1.000000
      2         13.556887   0.000000
      3         17.928036   0.000000
      4         19.541678   0.000000
      5         23.030784   0.000000
      6         23.200526   0.000000
      7         24.277442   0.000000
      8         25.914113   0.000000
 
 -0.1428571E+00  0.3571429E-01  0.5189416E-15  0.1093294E-02
      1         -3.662026   1.000000
      2         15.039312   0.000000
      3         18.216752   0.000000
      4         19.846262   0.000000
      5         23.048517   0.000000
      6         23.105938   0.000000
      7         24.297513   0.000000
      8         25.904694   0.000000
 
 -0.1071429E+00  0.3571429E-01 -0.1009193E-14  0.1093294E-02
      1         -3.941345   1.000000
      2         16.535810   0.000000
      3         18.562266   0.000000
      4         20.187354   0.000000
      5         22.656144   0.000000
      6         22.990522   0.000000
      7         23.935629   0.000000
      8         26.355249   0.000000
 
 -0.7142857E-01  0.3571429E-01  0.4559425E-14  0.1093294E-02
      1         -4.148073   1.000000
      2         18.013377   0.000000
      3         18.960803   0.000000
      4         20.532819   0.000000
      5         22.118579   0.000000
      6         22.787172   0.000000
      7         23.417705   0.000000
      8         26.998272   0.000000
 
 -0.3571429E-01  0.3571429E-01 -0.5113622E-15  0.5466472E-03
      1         -4.281962   1.000000
      2         19.384049   0.000000
      3         19.416919   0.000000
      4         20.720026   0.000000
      5         21.776481   0.000000
      6         22.430040   0.000000
      7         22.807942   0.000000
      8         27.652200   0.000000
 
  0.7142857E-01  0.7142857E-01  0.1094418E-16  0.2733236E-03
      1         -4.184571   1.000000
      2         19.007234   0.000000
      3         19.007235   0.000000
      4         20.233222   0.000000
      5         20.677942   0.000000
      6         23.609662   0.000000
      7         23.609662   0.000000
      8         26.474863   0.000000
 
  0.1071429E+00  0.7142857E-01 -0.5057257E-14  0.1093294E-02
      1         -4.050742   1.000000
      2         17.996383   0.000000
      3         18.548423   0.000000
      4         20.032360   0.000000
      5         20.702340   0.000000
      6         24.090231   0.000000
      7         24.219543   0.000000
      8         25.672667   0.000000
 
  0.1428571E+00  0.7142857E-01  0.4088535E-14  0.1093294E-02
      1         -3.844106   1.000000
      2         16.585234   0.000000
      3         18.143585   0.000000
      4         19.692407   0.000000
      5         21.184647   0.000000
      6         24.318711   0.000000
      7         24.797429   0.000000
      8         24.942680   0.000000
 
  0.1785714E+00  0.7142857E-01 -0.9820784E-15  0.1093294E-02
      1         -3.564906   1.000000
      2         15.108877   0.000000
      3         17.796421   0.000000
      4         19.351288   0.000000
      5         21.624958   0.000000
      6         24.171233   0.000000
      7         24.645390   0.000000
      8         25.207621   0.000000
 
  0.2142857E+00  0.7142857E-01  0.4607357E-14  0.1093294E-02
      1         -3.213466   1.000000
      2         13.635278   0.000000
      3         17.508775   0.000000
      4         19.038177   0.000000
      5         21.749075   0.000000
      6         23.904746   0.000000
      7         24.840125   0.000000
      8         25.244111   0.000000
 
  0.2500000E+00  0.7142857E-01 -0.4498996E-15  0.1093294E-02
      1         -2.790217   1.000000
      2         12.189436   0.000000
      3         17.281514   0.000000
      4         18.755950   0.000000
      5         21.475904   0.000000
      6         23.857732   0.000000
      7         24.912590   0.000000
      8         25.318468   0.000000
 
  0.2857143E+00  0.7142857E-01  0.5180128E-14  0.1093294E-02
      1         -2.295695   1.000000
      2         10.784196   0.000000
      3         17.114924   0.000000
      4         18.498151   0.000000
      5         21.031160   0.000000
      6         23.859524   0.000000
      7         24.411693   0.000000
      8         26.054973   0.000000
 
  0.3214286E+00  0.7142857E-01  0.6805454E-16  0.1093294E-02
      1         -1.730575   1.000000
      2          9.427406   1.000000
      3         17.008868   0.000000
      4         18.251383   0.000000
      5         20.592126   0.000000
      6         23.856313   0.000000
      7         23.868345   0.000000
      8         26.923329   0.000000
 
  0.3571429E+00  0.7142857E-01 -0.4961446E-14  0.1093294E-02
      1         -1.095753   1.000000
      2          8.124446   1.000000
      3         16.962802   0.000000
      4         17.998424   0.000000
      5         20.239085   0.000000
      6         23.337477   0.000000
      7         23.855219   0.000000
      8         27.608501   0.000000
 
  0.3928571E+00  0.7142857E-01  0.4074191E-14  0.1093294E-02
      1         -0.392531   1.000000
      2          6.879598   1.000000
      3         16.975779   0.000000
      4         17.726776   0.000000
      5         20.009236   0.000000
      6         22.844496   0.000000
      7         23.860552   0.000000
      8         27.483791   0.000000
 
  0.4285714E+00  0.7142857E-01 -0.9553103E-15  0.1093294E-02
      1          0.376773   1.000000
      2          5.697145   1.000000
      3         17.046302   0.000000
      4         17.438111   0.000000
      5         19.912020   0.000000
      6         22.403157   0.000000
      7         23.867595   0.000000
      8         27.169638   0.000000
 
  0.4642857E+00  0.7142857E-01  0.4619900E-14  0.1093294E-02
      1          1.206078   1.000000
      2          4.584470   1.000000
      3         17.147458   0.000000
      4         17.172177   0.000000
      5         19.937948   0.000000
      6         22.022325   0.000000
      7         23.864927   0.000000
      8         26.932040   0.000000
 
  0.5000000E+00  0.7142857E-01 -0.3818450E-15  0.1093294E-02
      1          2.061837   1.000000
      2          3.575875   1.000000
      3         16.873597   0.000000
      4         17.350105   0.000000
      5         20.071054   0.000000
      6         21.708976   0.000000
      7         23.840018   0.000000
      8         26.817947   0.000000
 
 -0.4642857E+00  0.7142857E-01  0.4975965E-14  0.1093294E-02
      1          2.310958   1.000000
      2          3.304886   1.000000
      3         16.632083   0.000000
      4         17.575332   0.000000
      5         20.297033   0.000000
      6         21.469849   0.000000
      7         23.787560   0.000000
      8         26.841444   0.000000
 
 -0.4285714E+00  0.7142857E-01 -0.1361091E-15  0.1093294E-02
      1          1.492596   1.000000
      2          4.232401   1.000000
      3         16.433746   0.000000
      4         17.840943   0.000000
      5         20.605151   0.000000
      6         21.312543   0.000000
      7         23.714193   0.000000
      8         26.997134   0.000000
 
 -0.3928571E+00  0.7142857E-01 -0.5083037E-14  0.1093294E-02
      1          0.647059   1.000000
      2          5.317802   1.000000
      3         16.285663   0.000000
      4         18.137223   0.000000
      5         20.987372   0.000000
      6         21.246294   0.000000
      7         23.634626   0.000000
      8         27.266369   0.000000
 
 -0.3571429E+00  0.7142857E-01  0.3953294E-14  0.1093294E-02
      1         -0.143314   1.000000
      2          6.478093   1.000000
      3         16.192402   0.000000
      4         18.451603   0.000000
      5         21.281825   0.000000
      6         21.436972   0.000000
      7         23.563882   0.000000
      8         27.623045   0.000000
 
 -0.3214286E+00  0.7142857E-01 -0.1022778E-14  0.1093294E-02
      1         -0.868910   1.000000
      2          7.702546   1.000000
      3         16.156891   0.000000
      4         18.770377   0.000000
      5         21.428866   0.000000
      6         21.947082   0.000000
      7         23.512431   0.000000
      8         28.028843   0.000000
 
 -0.2857143E+00  0.7142857E-01  0.4553127E-14  0.1093294E-02
      1         -1.526708   1.000000
      2          8.986385   1.000000
      3         16.180997   0.000000
      4         19.083105   0.000000
      5         21.689840   0.000000
      6         22.508775   0.000000
      7         23.484708   0.000000
      8         27.895711   0.000000
 
 -0.2500000E+00  0.7142857E-01 -0.5311914E-15  0.1093294E-02
      1         -2.115174   1.000000
      2         10.325465   0.000000
      3         16.265844   0.000000
      4         19.387493   0.000000
      5         22.049767   0.000000
      6         23.106785   0.000000
      7         23.479811   0.000000
      8         26.885187   0.000000
 
 -0.2142857E+00  0.7142857E-01  0.4989202E-14  0.1093294E-02
      1         -2.633309   1.000000
      2         11.714833   0.000000
      3         16.412051   0.000000
      4         19.689558   0.000000
      5         22.459873   0.000000
      6         23.478477   0.000000
      7         23.723017   0.000000
      8         25.996210   0.000000
 
 -0.1785714E+00  0.7142857E-01 -0.1323727E-16  0.1093294E-02
      1         -3.080377   1.000000
      2         13.147562   0.000000
      3         16.619809   0.000000
      4         19.997780   0.000000
      5         22.790948   0.000000
      6         23.480955   0.000000
      7         24.269873   0.000000
      8         25.351064   0.000000
 
 -0.1428571E+00  0.7142857E-01 -0.5084372E-14  0.1093294E-02
      1         -3.455800   1.000000
      2         14.612854   0.000000
      3         16.889156   0.000000
      4         20.313797   0.000000
      5         22.785313   0.000000
      6         23.443081   0.000000
      7         24.586604   0.000000
      8         25.202566   0.000000
 
 -0.1071429E+00  0.7142857E-01  0.4061941E-14  0.1093294E-02
      1         -3.759112   1.000000
      2         16.090667   0.000000
      3         17.221638   0.000000
      4         20.612898   0.000000
      5         22.413683   0.000000
      6         23.322131   0.000000
      7         24.474094   0.000000
      8         25.595589   0.000000
 
 -0.7142857E-01  0.7142857E-01 -0.9953157E-15  0.5466472E-03
      1         -3.989957   1.000000
      2         17.467301   0.000000
      3         17.695570   0.000000
      4         20.768414   0.000000
      5         22.058812   0.000000
      6         23.086336   0.000000
      7         24.048789   0.000000
      8         26.255757   0.000000
 
  0.1071429E+00  0.1071429E+00  0.1163339E-16  0.2733236E-03
      1         -3.941297   1.000000
      2         18.068456   0.000000
      3         18.068456   0.000000
      4         19.707962   0.000000
      5         19.817056   0.000000
      6         24.775206   0.000000
      7         24.841771   0.000000
      8         24.841771   0.000000
 
  0.1428571E+00  0.1071429E+00 -0.1496737E-14  0.1093294E-02
      1         -3.759040   1.000000
      2         17.093205   0.000000
      3         17.643234   0.000000
      4         19.380638   0.000000
      5         19.891276   0.000000
      6         23.935029   0.000000
      7         25.321800   0.000000
      8         25.451779   0.000000
 
  0.1785714E+00  0.1071429E+00  0.4102587E-14  0.1093294E-02
      1         -3.504180   1.000000
      2         15.701595   0.000000
      3         17.276261   0.000000
      4         19.014243   0.000000
      5         20.349633   0.000000
      6         23.257468   0.000000
      7         25.559902   0.000000
      8         25.946103   0.000000
 
  0.2142857E+00  0.1071429E+00 -0.9546698E-15  0.1093294E-02
      1         -3.177016   1.000000
      2         14.247712   0.000000
      3         16.969394   0.000000
      4         18.663765   0.000000
      5         20.624419   0.000000
      6         22.952387   0.000000
      7         25.668728   0.000000
      8         26.123785   0.000000
 
  0.2500000E+00  0.1071429E+00  0.4606663E-14  0.1093294E-02
      1         -2.777938   1.000000
      2         12.802203   0.000000
      3         16.723624   0.000000
      4         18.327845   0.000000
      5         20.472140   0.000000
      6         23.203688   0.000000
      7         25.747943   0.000000
      8         25.898661   0.000000
 
  0.2857143E+00  0.1071429E+00 -0.4228379E-15  0.1093294E-02
      1         -2.307447   1.000000
      2         11.388879   0.000000
      3         16.539422   0.000000
      4         17.994132   0.000000
      5         20.089179   0.000000
      6         23.766939   0.000000
      7         25.444642   0.000000
      8         25.894826   0.000000
 
  0.3214286E+00  0.1071429E+00  0.5098249E-14  0.1093294E-02
      1         -1.766163   1.000000
      2         10.019433   0.000003
      3         16.416925   0.000000
      4         17.645138   0.000000
      5         19.712000   0.000000
      6         24.305848   0.000000
      7         24.915529   0.000000
      8         26.244217   0.000000
 
  0.3571429E+00  0.1071429E+00  0.1228718E-15  0.1093294E-02
      1         -1.154896   1.000000
      2          8.700945   1.000000
      3         16.355984   0.000000
      4         17.269877   0.000000
      5         19.435035   0.000000
      6         24.381752   0.000000
      7         24.632451   0.000000
      8         26.898036   0.000000
 
  0.3928571E+00  0.1071429E+00 -0.1501020E-14  0.1093294E-02
      1         -0.474766   1.000000
      2          7.438432   1.000000
      3         16.356216   0.000000
      4         16.874503   0.000000
      5         19.282148   0.000000
      6         23.875279   0.000000
      7         24.775058   0.000000
      8         27.749266   0.000000
 
  0.4285714E+00  0.1071429E+00  0.4129702E-14  0.1093294E-02
      1          0.272386   1.000000
      2          6.236230   1.000000
      3         16.416948   0.000000
      4         16.478331   0.000000
      5         19.246754   0.000000
      6         23.412522   0.000000
      7         24.821076   0.000000
      8         28.281209   0.000000
 
  0.4642857E+00  0.1071429E+00 -0.1010128E-14  0.1093294E-02
      1          1.082448   1.000000
      2          5.100118   1.000000
      3         16.101973   0.000000
      4         16.537183   0.000000
      5         19.314403   0.000000
      6         23.003065   0.000000
      7         24.811086   0.000000
      8         28.186939   0.000000
 
  0.5000000E+00  0.1071429E+00  0.4675411E-14  0.1093294E-02
      1          1.938962   1.000000
      2          4.047568   1.000000
      3         15.761084   0.000000
      4         16.715471   0.000000
      5         19.472581   0.000000
      6         22.653270   0.000000
      7         24.758728   0.000000
      8         28.103281   0.000000
 
 -0.4642857E+00  0.1071429E+00 -0.5437348E-15  0.1093294E-02
      1          2.592681   1.000000
      2          3.328375   1.000000
      3         15.466062   0.000000
      4         16.949742   0.000000
      5         19.712351   0.000000
      6         22.367964   0.000000
      7         24.673558   0.000000
      8         28.130742   0.000000
 
 -0.4285714E+00  0.1071429E+00  0.4975965E-14  0.1093294E-02
      1          1.938876   1.000000
      2          4.047465   1.000000
      3         15.223561   0.000000
      4         17.237071   0.000000
      5         20.027420   0.000000
      6         22.151434   0.000000
      7         24.569013   0.000000
      8         28.270711   0.000000
 
 -0.3928571E+00  0.1071429E+00 -0.1361091E-15  0.1093294E-02
      1          1.082316   1.000000
      2          5.099838   1.000000
      3         15.037846   0.000000
      4         17.573259   0.000000
      5         20.412926   0.000000
      6         22.008050   0.000000
      7         24.460528   0.000000
      8         28.504359   0.000000
 
 -0.3571429E+00  0.1071429E+00 -0.1677428E-14  0.1093294E-02
      1          0.272230   1.000000
      2          6.235669   1.000000
      3         14.911702   0.000000
      4         17.952346   0.000000
      5         20.864524   0.000000
      6         21.942714   0.000000
      7         24.361186   0.000000
      8         28.798301   0.000000
 