       N       E                     dE             d eps       ncg     rms          rms(c)
DAV:   1    -0.488788675973E+01   -0.48879E+01   -0.43688E-14  5008   0.106E-06    0.731E-08
DAV:   2    -0.488788675971E+01    0.19185E-10   -0.15918E-14  5040   0.192E-07
   1 F= -.48878868E+01 E0= -.48876652E+01  d E =-.443028E-03
