<?xml version="1.0" encoding="ISO-8859-1"?>
<modeling>
 <generator>
  <i name="program" type="string">vasp </i>
  <i name="version" type="string">6.3.2  </i>
  <i name="subversion" type="string">27Jun22 (build Dec 02 2024 22:47:12) complex                          parallel </i>
  <i name="platform" type="string">LinuxIFC </i>
  <i name="date" type="string">2024 12 19 </i>
  <i name="time" type="string">22:05:28 </i>
 </generator>
 <incar>
  <i type="string" name="SYSTEM">DFT Groundstate Calculation</i>
  <i type="string" name="ALGO">Normal</i>
  <i type="int" name="IBRION">     2</i>
  <i name="EDIFF">      0.00000001</i>
  <i type="int" name="ISIF">     3</i>
  <i name="ENCUT">    520.00000000</i>
  <i type="string" name="LREAL">Auto</i>
  <i type="int" name="ISMEAR">     0</i>
  <i name="SIGMA">      0.05000000</i>
  <i name="KSPACING">      0.10000000</i>
 </incar>
 <primitive_cell>
  <structure name="primitive_cell" >
   <crystal>
    <varray name="basis" >
     <v>       1.95000000       1.95000000       0.00000000 </v>
     <v>       0.00000000       1.95000000       1.95000000 </v>
     <v>       1.95000000       0.00000000       1.95000000 </v>
    </varray>
    <i name="volume">     14.82975000 </i>
    <varray name="rec_basis" >
     <v>       0.25641026       0.25641026      -0.25641026 </v>
     <v>      -0.25641026       0.25641026       0.25641026 </v>
     <v>       0.25641026      -0.25641026       0.25641026 </v>
    </varray>
   </crystal>
   <varray name="positions" >
    <v>       0.00000000       0.00000000       0.00000000 </v>
   </varray>
  </structure>
  <varray name="primitive_index" >
   <v type="int" >        1 </v>
  </varray>
 </primitive_cell>
 <kpoints>
  <generation param="Gamma">
   <v type="int" name="divisions">      28       28       28 </v>
   <v name="usershift">      0.00000000       0.00000000       0.00000000 </v>
   <v name="genvec1">      0.03571429      -0.00000000      -0.00000000 </v>
   <v name="genvec2">     -0.00000000       0.03571429       0.00000000 </v>
   <v name="genvec3">      0.00000000       0.00000000       0.03571429 </v>
   <v name="shift">      0.00000000       0.00000000       0.00000000 </v>
  </generation>
  <varray name="kpointlist" >
   <v>       0.00000000       0.00000000       0.00000000 </v>
   <v>       0.03571429       0.00000000      -0.00000000 </v>
   <v>       0.07142857      -0.00000000       0.00000000 </v>
   <v>       0.10714286      -0.00000000      -0.00000000 </v>
   <v>       0.14285714       0.00000000       0.00000000 </v>
   <v>       0.17857143      -0.00000000      -0.00000000 </v>
   <v>       0.21428571       0.00000000       0.00000000 </v>
   <v>       0.25000000      -0.00000000       0.00000000 </v>
   <v>       0.28571429       0.00000000      -0.00000000 </v>
   <v>       0.32142857       0.00000000       0.00000000 </v>
   <v>       0.35714286      -0.00000000      -0.00000000 </v>
   <v>       0.39285714       0.00000000       0.00000000 </v>
   <v>       0.42857143       0.00000000      -0.00000000 </v>
   <v>       0.46428571       0.00000000       0.00000000 </v>
   <v>       0.50000000      -0.00000000       0.00000000 </v>
   <v>       0.03571429       0.03571429       0.00000000 </v>
   <v>       0.07142857       0.03571429      -0.00000000 </v>
   <v>       0.10714286       0.03571429       0.00000000 </v>
   <v>       0.14285714       0.03571429      -0.00000000 </v>
   <v>       0.17857143       0.03571429       0.00000000 </v>
   <v>       0.21428571       0.03571429      -0.00000000 </v>
   <v>       0.25000000       0.03571429       0.00000000 </v>
   <v>       0.28571429       0.03571429       0.00000000 </v>
   <v>       0.32142857       0.03571429      -0.00000000 </v>
   <v>       0.35714286       0.03571429       0.00000000 </v>
   <v>       0.39285714       0.03571429      -0.00000000 </v>
   <v>       0.42857143       0.03571429       0.00000000 </v>
   <v>       0.46428571       0.03571429      -0.00000000 </v>
   <v>       0.50000000       0.03571429       0.00000000 </v>
   <v>      -0.46428571       0.03571429      -0.00000000 </v>
   <v>      -0.42857143       0.03571429      -0.00000000 </v>
   <v>      -0.39285714       0.03571429       0.00000000 </v>
   <v>      -0.35714286       0.03571429      -0.00000000 </v>
   <v>      -0.32142857       0.03571429       0.00000000 </v>
   <v>      -0.28571429       0.03571429      -0.00000000 </v>
   <v>      -0.25000000       0.03571429       0.00000000 </v>
   <v>      -0.21428571       0.03571429      -0.00000000 </v>
   <v>      -0.17857143       0.03571429      -0.00000000 </v>
   <v>      -0.14285714       0.03571429       0.00000000 </v>
   <v>      -0.10714286       0.03571429      -0.00000000 </v>
   <v>      -0.07142857       0.03571429       0.00000000 </v>
   <v>      -0.03571429       0.03571429      -0.00000000 </v>
   <v>       0.07142857       0.07142857       0.00000000 </v>
   <v>       0.10714286       0.07142857      -0.00000000 </v>
   <v>       0.14285714       0.07142857       0.00000000 </v>
   <v>       0.17857143       0.07142857      -0.00000000 </v>
   <v>       0.21428571       0.07142857       0.00000000 </v>
   <v>       0.25000000       0.07142857      -0.00000000 </v>
   <v>       0.28571429       0.07142857       0.00000000 </v>
   <v>       0.32142857       0.07142857       0.00000000 </v>
   <v>       0.35714286       0.07142857      -0.00000000 </v>
   <v>       0.39285714       0.07142857       0.00000000 </v>
   <v>       0.42857143       0.07142857      -0.00000000 </v>
   <v>       0.46428571       0.07142857       0.00000000 </v>
   <v>       0.50000000       0.07142857      -0.00000000 </v>
   <v>      -0.46428571       0.07142857       0.00000000 </v>
   <v>      -0.42857143       0.07142857      -0.00000000 </v>
   <v>      -0.39285714       0.07142857      -0.00000000 </v>
   <v>      -0.35714286       0.07142857       0.00000000 </v>
   <v>      -0.32142857       0.07142857      -0.00000000 </v>
   <v>      -0.28571429       0.07142857       0.00000000 </v>
   <v>      -0.25000000       0.07142857      -0.00000000 </v>
   <v>      -0.21428571       0.07142857       0.00000000 </v>
   <v>      -0.17857143       0.07142857      -0.00000000 </v>
   <v>      -0.14285714       0.07142857      -0.00000000 </v>
   <v>      -0.10714286       0.07142857       0.00000000 </v>
   <v>      -0.07142857       0.07142857      -0.00000000 </v>
   <v>       0.10714286       0.10714286       0.00000000 </v>
   <v>       0.14285714       0.10714286      -0.00000000 </v>
   <v>       0.17857143       0.10714286       0.00000000 </v>
   <v>       0.21428571       0.10714286      -0.00000000 </v>
   <v>       0.25000000       0.10714286       0.00000000 </v>
   <v>       0.28571429       0.10714286      -0.00000000 </v>
   <v>       0.32142857       0.10714286       0.00000000 </v>
   <v>       0.35714286       0.10714286       0.00000000 </v>
   <v>       0.39285714       0.10714286      -0.00000000 </v>
   <v>       0.42857143       0.10714286       0.00000000 </v>
   <v>       0.46428571       0.10714286      -0.00000000 </v>
   <v>       0.50000000       0.10714286       0.00000000 </v>
   <v>      -0.46428571       0.10714286      -0.00000000 </v>
   <v>      -0.42857143       0.10714286       0.00000000 </v>
   <v>      -0.39285714       0.10714286      -0.00000000 </v>
   <v>      -0.35714286       0.10714286      -0.00000000 </v>
   <v>      -0.32142857       0.10714286       0.00000000 </v>
   <v>      -0.28571429       0.10714286      -0.00000000 </v>
   <v>      -0.25000000       0.10714286       0.00000000 </v>
   <v>      -0.21428571       0.10714286      -0.00000000 </v>
   <v>      -0.17857143       0.10714286       0.00000000 </v>
   <v>      -0.14285714       0.10714286      -0.00000000 </v>
   <v>      -0.10714286       0.10714286      -0.00000000 </v>
   <v>       0.14285714       0.14285714       0.00000000 </v>
   <v>       0.17857143       0.14285714      -0.00000000 </v>
   <v>       0.21428571       0.14285714       0.00000000 </v>
   <v>       0.25000000       0.14285714      -0.00000000 </v>
   <v>       0.28571429       0.14285714       0.00000000 </v>
   <v>       0.32142857       0.14285714      -0.00000000 </v>
   <v>       0.35714286       0.14285714       0.00000000 </v>
   <v>       0.39285714       0.14285714       0.00000000 </v>
   <v>       0.42857143       0.14285714      -0.00000000 </v>
   <v>       0.46428571       0.14285714       0.00000000 </v>
   <v>       0.50000000       0.14285714      -0.00000000 </v>
   <v>      -0.46428571       0.14285714       0.00000000 </v>
   <v>      -0.42857143       0.14285714      -0.00000000 </v>
   <v>      -0.39285714       0.14285714       0.00000000 </v>
   <v>      -0.35714286       0.14285714      -0.00000000 </v>
   <v>      -0.32142857       0.14285714      -0.00000000 </v>
   <v>      -0.28571429       0.14285714       0.00000000 </v>
   <v>      -0.25000000       0.14285714      -0.00000000 </v>
   <v>      -0.21428571       0.14285714       0.00000000 </v>
   <v>      -0.17857143       0.14285714      -0.00000000 </v>
   <v>      -0.14285714       0.14285714       0.00000000 </v>
   <v>       0.17857143       0.17857143       0.00000000 </v>
   <v>       0.21428571       0.17857143      -0.00000000 </v>
   <v>       0.25000000       0.17857143       0.00000000 </v>
   <v>       0.28571429       0.17857143      -0.00000000 </v>
   <v>       0.32142857       0.17857143       0.00000000 </v>
   <v>       0.35714286       0.17857143      -0.00000000 </v>
   <v>       0.39285714       0.17857143       0.00000000 </v>
   <v>       0.42857143       0.17857143       0.00000000 </v>
   <v>       0.46428571       0.17857143      -0.00000000 </v>
   <v>       0.50000000       0.17857143       0.00000000 </v>
   <v>      -0.46428571       0.17857143      -0.00000000 </v>
   <v>      -0.42857143       0.17857143       0.00000000 </v>
   <v>      -0.39285714       0.17857143      -0.00000000 </v>
   <v>      -0.35714286       0.17857143       0.00000000 </v>
   <v>      -0.32142857       0.17857143      -0.00000000 </v>
   <v>      -0.28571429       0.17857143      -0.00000000 </v>
   <v>      -0.25000000       0.17857143       0.00000000 </v>
   <v>      -0.21428571       0.17857143      -0.00000000 </v>
   <v>      -0.17857143       0.17857143       0.00000000 </v>
   <v>       0.21428571       0.21428571       0.00000000 </v>
   <v>       0.25000000       0.21428571      -0.00000000 </v>
   <v>       0.28571429       0.21428571       0.00000000 </v>
   <v>       0.32142857       0.21428571      -0.00000000 </v>
   <v>       0.35714286       0.21428571       0.00000000 </v>
   <v>       0.39285714       0.21428571      -0.00000000 </v>
   <v>       0.42857143       0.21428571       0.00000000 </v>
   <v>       0.46428571       0.21428571       0.00000000 </v>
   <v>       0.50000000       0.21428571      -0.00000000 </v>
   <v>      -0.46428571       0.21428571       0.00000000 </v>
   <v>      -0.42857143       0.21428571      -0.00000000 </v>
   <v>      -0.39285714       0.21428571       0.00000000 </v>
   <v>      -0.35714286       0.21428571      -0.00000000 </v>
   <v>      -0.32142857       0.21428571       0.00000000 </v>
   <v>      -0.28571429       0.21428571      -0.00000000 </v>
   <v>      -0.25000000       0.21428571      -0.00000000 </v>
   <v>      -0.21428571       0.21428571       0.00000000 </v>
   <v>       0.25000000       0.25000000       0.00000000 </v>
   <v>       0.28571429       0.25000000      -0.00000000 </v>
   <v>       0.32142857       0.25000000       0.00000000 </v>
   <v>       0.35714286       0.25000000      -0.00000000 </v>
   <v>       0.39285714       0.25000000       0.00000000 </v>
   <v>       0.42857143       0.25000000      -0.00000000 </v>
   <v>       0.46428571       0.25000000       0.00000000 </v>
   <v>       0.50000000       0.25000000       0.00000000 </v>
   <v>      -0.46428571       0.25000000      -0.00000000 </v>
   <v>      -0.42857143       0.25000000       0.00000000 </v>
   <v>      -0.39285714       0.25000000      -0.00000000 </v>
   <v>      -0.35714286       0.25000000       0.00000000 </v>
   <v>      -0.32142857       0.25000000      -0.00000000 </v>
   <v>      -0.28571429       0.25000000       0.00000000 </v>
   <v>      -0.25000000       0.25000000      -0.00000000 </v>
   <v>       0.28571429       0.28571429       0.00000000 </v>
   <v>       0.32142857       0.28571429      -0.00000000 </v>
   <v>       0.35714286       0.28571429       0.00000000 </v>
   <v>       0.39285714       0.28571429      -0.00000000 </v>
   <v>       0.42857143       0.28571429       0.00000000 </v>
   <v>       0.46428571       0.28571429      -0.00000000 </v>
   <v>       0.50000000       0.28571429       0.00000000 </v>
   <v>      -0.46428571       0.28571429      -0.00000000 </v>
   <v>      -0.42857143       0.28571429      -0.00000000 </v>
   <v>      -0.39285714       0.28571429       0.00000000 </v>
   <v>      -0.35714286       0.28571429      -0.00000000 </v>
   <v>      -0.32142857       0.28571429       0.00000000 </v>
   <v>      -0.28571429       0.28571429      -0.00000000 </v>
   <v>       0.32142857       0.32142857       0.00000000 </v>
   <v>       0.35714286       0.32142857      -0.00000000 </v>
   <v>       0.39285714       0.32142857       0.00000000 </v>
   <v>       0.42857143       0.32142857      -0.00000000 </v>
   <v>       0.46428571       0.32142857       0.00000000 </v>
   <v>       0.50000000       0.32142857      -0.00000000 </v>
   <v>      -0.46428571       0.32142857       0.00000000 </v>
   <v>      -0.42857143       0.32142857      -0.00000000 </v>
   <v>      -0.39285714       0.32142857      -0.00000000 </v>
   <v>      -0.35714286       0.32142857       0.00000000 </v>
   <v>      -0.32142857       0.32142857      -0.00000000 </v>
   <v>       0.35714286       0.35714286       0.00000000 </v>
   <v>       0.39285714       0.35714286      -0.00000000 </v>
   <v>       0.42857143       0.35714286       0.00000000 </v>
   <v>       0.46428571       0.35714286      -0.00000000 </v>
   <v>       0.50000000       0.35714286       0.00000000 </v>
   <v>      -0.46428571       0.35714286      -0.00000000 </v>
   <v>      -0.42857143       0.35714286       0.00000000 </v>
   <v>      -0.39285714       0.35714286      -0.00000000 </v>
   <v>      -0.35714286       0.35714286      -0.00000000 </v>
   <v>       0.39285714       0.39285714       0.00000000 </v>
   <v>       0.42857143       0.39285714      -0.00000000 </v>
   <v>       0.46428571       0.39285714       0.00000000 </v>
   <v>       0.50000000       0.39285714      -0.00000000 </v>
   <v>      -0.46428571       0.39285714       0.00000000 </v>
   <v>      -0.42857143       0.39285714      -0.00000000 </v>
   <v>      -0.39285714       0.39285714       0.00000000 </v>
   <v>       0.42857143       0.42857143       0.00000000 </v>
   <v>       0.46428571       0.42857143      -0.00000000 </v>
   <v>       0.50000000       0.42857143       0.00000000 </v>
   <v>      -0.46428571       0.42857143      -0.00000000 </v>
   <v>      -0.42857143       0.42857143       0.00000000 </v>
   <v>       0.46428571       0.46428571       0.00000000 </v>
   <v>       0.50000000       0.46428571      -0.00000000 </v>
   <v>      -0.46428571       0.46428571       0.00000000 </v>
   <v>       0.50000000       0.50000000       0.00000000 </v>
   <v>       0.10714286       0.07142857       0.03571429 </v>
   <v>       0.14285714       0.07142857       0.03571429 </v>
   <v>       0.17857143       0.07142857       0.03571429 </v>
   <v>       0.21428571       0.07142857       0.03571429 </v>
   <v>       0.25000000       0.07142857       0.03571429 </v>
   <v>       0.28571429       0.07142857       0.03571429 </v>
   <v>       0.32142857       0.07142857       0.03571429 </v>
   <v>       0.35714286       0.07142857       0.03571429 </v>
   <v>       0.39285714       0.07142857       0.03571429 </v>
   <v>       0.42857143       0.07142857       0.03571429 </v>
   <v>       0.46428571       0.07142857       0.03571429 </v>
   <v>       0.50000000       0.07142857       0.03571429 </v>
   <v>      -0.46428571       0.07142857       0.03571429 </v>
   <v>       0.14285714       0.10714286       0.03571429 </v>
   <v>       0.17857143       0.10714286       0.03571429 </v>
   <v>       0.21428571       0.10714286       0.03571429 </v>
   <v>       0.25000000       0.10714286       0.03571429 </v>
   <v>       0.28571429       0.10714286       0.03571429 </v>
   <v>       0.32142857       0.10714286       0.03571429 </v>
   <v>       0.35714286       0.10714286       0.03571429 </v>
   <v>       0.39285714       0.10714286       0.03571429 </v>
   <v>       0.42857143       0.10714286       0.03571429 </v>
   <v>       0.46428571       0.10714286       0.03571429 </v>
   <v>       0.50000000       0.10714286       0.03571429 </v>
   <v>      -0.46428571       0.10714286       0.03571429 </v>
   <v>      -0.42857143       0.10714286       0.03571429 </v>
   <v>      -0.39285714       0.10714286       0.03571429 </v>
   <v>      -0.35714286       0.10714286       0.03571429 </v>
   <v>      -0.32142857       0.10714286       0.03571429 </v>
   <v>      -0.28571429       0.10714286       0.03571429 </v>
   <v>      -0.25000000       0.10714286       0.03571429 </v>
   <v>      -0.21428571       0.10714286       0.03571429 </v>
   <v>      -0.17857143       0.10714286       0.03571429 </v>
   <v>      -0.14285714       0.10714286       0.03571429 </v>
   <v>      -0.10714286       0.10714286       0.03571429 </v>
   <v>      -0.07142857       0.10714286       0.03571429 </v>
   <v>       0.17857143       0.14285714       0.03571429 </v>
   <v>       0.21428571       0.14285714       0.03571429 </v>
   <v>       0.25000000       0.14285714       0.03571429 </v>
   <v>       0.28571429       0.14285714       0.03571429 </v>
   <v>       0.32142857       0.14285714       0.03571429 </v>
   <v>       0.35714286       0.14285714       0.03571429 </v>
   <v>       0.39285714       0.14285714       0.03571429 </v>
   <v>       0.42857143       0.14285714       0.03571429 </v>
   <v>       0.46428571       0.14285714       0.03571429 </v>
   <v>       0.50000000       0.14285714       0.03571429 </v>
   <v>      -0.46428571       0.14285714       0.03571429 </v>
   <v>      -0.42857143       0.14285714       0.03571429 </v>
   <v>      -0.39285714       0.14285714       0.03571429 </v>
   <v>      -0.35714286       0.14285714       0.03571429 </v>
   <v>      -0.32142857       0.14285714       0.03571429 </v>
   <v>      -0.28571429       0.14285714       0.03571429 </v>
   <v>      -0.25000000       0.14285714       0.03571429 </v>
   <v>      -0.21428571       0.14285714       0.03571429 </v>
   <v>      -0.17857143       0.14285714       0.03571429 </v>
   <v>      -0.14285714       0.14285714       0.03571429 </v>
   <v>      -0.10714286       0.14285714       0.03571429 </v>
   <v>       0.21428571       0.17857143       0.03571429 </v>
   <v>       0.25000000       0.17857143       0.03571429 </v>
   <v>       0.28571429       0.17857143       0.03571429 </v>
   <v>       0.32142857       0.17857143       0.03571429 </v>
   <v>       0.35714286       0.17857143       0.03571429 </v>
   <v>       0.39285714       0.17857143       0.03571429 </v>
   <v>       0.42857143       0.17857143       0.03571429 </v>
   <v>       0.46428571       0.17857143       0.03571429 </v>
   <v>       0.50000000       0.17857143       0.03571429 </v>
   <v>      -0.46428571       0.17857143       0.03571429 </v>
   <v>      -0.42857143       0.17857143       0.03571429 </v>
   <v>      -0.39285714       0.17857143       0.03571429 </v>
   <v>      -0.35714286       0.17857143       0.03571429 </v>
   <v>      -0.32142857       0.17857143       0.03571429 </v>
   <v>      -0.28571429       0.17857143       0.03571429 </v>
   <v>      -0.25000000       0.17857143       0.03571429 </v>
   <v>      -0.21428571       0.17857143       0.03571429 </v>
   <v>      -0.17857143       0.17857143       0.03571429 </v>
   <v>      -0.14285714       0.17857143       0.03571429 </v>
   <v>       0.25000000       0.21428571       0.03571429 </v>
   <v>       0.28571429       0.21428571       0.03571429 </v>
   <v>       0.32142857       0.21428571       0.03571429 </v>
   <v>       0.35714286       0.21428571       0.03571429 </v>
   <v>       0.39285714       0.21428571       0.03571429 </v>
   <v>       0.42857143       0.21428571       0.03571429 </v>
   <v>       0.46428571       0.21428571       0.03571429 </v>
   <v>       0.50000000       0.21428571       0.03571429 </v>
   <v>      -0.46428571       0.21428571       0.03571429 </v>
   <v>      -0.42857143       0.21428571       0.03571429 </v>
   <v>      -0.39285714       0.21428571       0.03571429 </v>
   <v>      -0.35714286       0.21428571       0.03571429 </v>
   <v>      -0.32142857       0.21428571       0.03571429 </v>
   <v>      -0.28571429       0.21428571       0.03571429 </v>
   <v>      -0.25000000       0.21428571       0.03571429 </v>
   <v>      -0.21428571       0.21428571       0.03571429 </v>
   <v>      -0.17857143       0.21428571       0.03571429 </v>
   <v>       0.28571429       0.25000000       0.03571429 </v>
   <v>       0.32142857       0.25000000       0.03571429 </v>
   <v>       0.35714286       0.25000000       0.03571429 </v>
   <v>       0.39285714       0.25000000       0.03571429 </v>
   <v>       0.42857143       0.25000000       0.03571429 </v>
   <v>       0.46428571       0.25000000       0.03571429 </v>
   <v>       0.50000000       0.25000000       0.03571429 </v>
   <v>      -0.46428571       0.25000000       0.03571429 </v>
   <v>      -0.42857143       0.25000000       0.03571429 </v>
   <v>      -0.39285714       0.25000000       0.03571429 </v>
   <v>      -0.35714286       0.25000000       0.03571429 </v>
   <v>      -0.32142857       0.25000000       0.03571429 </v>
   <v>      -0.28571429       0.25000000       0.03571429 </v>
   <v>      -0.25000000       0.25000000       0.03571429 </v>
   <v>      -0.21428571       0.25000000       0.03571429 </v>
   <v>       0.32142857       0.28571429       0.03571429 </v>
   <v>       0.35714286       0.28571429       0.03571429 </v>
   <v>       0.39285714       0.28571429       0.03571429 </v>
   <v>       0.42857143       0.28571429       0.03571429 </v>
   <v>       0.46428571       0.28571429       0.03571429 </v>
   <v>       0.50000000       0.28571429       0.03571429 </v>
   <v>      -0.46428571       0.28571429       0.03571429 </v>
   <v>      -0.42857143       0.28571429       0.03571429 </v>
   <v>      -0.39285714       0.28571429       0.03571429 </v>
   <v>      -0.35714286       0.28571429       0.03571429 </v>
   <v>      -0.32142857       0.28571429       0.03571429 </v>
   <v>      -0.28571429       0.28571429       0.03571429 </v>
   <v>      -0.25000000       0.28571429       0.03571429 </v>
   <v>       0.35714286       0.32142857       0.03571429 </v>
   <v>       0.39285714       0.32142857       0.03571429 </v>
   <v>       0.42857143       0.32142857       0.03571429 </v>
   <v>       0.46428571       0.32142857       0.03571429 </v>
   <v>       0.50000000       0.32142857       0.03571429 </v>
   <v>      -0.46428571       0.32142857       0.03571429 </v>
   <v>      -0.42857143       0.32142857       0.03571429 </v>
   <v>      -0.39285714       0.32142857       0.03571429 </v>
   <v>      -0.35714286       0.32142857       0.03571429 </v>
   <v>      -0.32142857       0.32142857       0.03571429 </v>
   <v>      -0.28571429       0.32142857       0.03571429 </v>
   <v>       0.39285714       0.35714286       0.03571429 </v>
   <v>       0.42857143       0.35714286       0.03571429 </v>
   <v>       0.46428571       0.35714286       0.03571429 </v>
   <v>       0.50000000       0.35714286       0.03571429 </v>
   <v>      -0.46428571       0.35714286       0.03571429 </v>
   <v>      -0.42857143       0.35714286       0.03571429 </v>
   <v>      -0.39285714       0.35714286       0.03571429 </v>
   <v>      -0.35714286       0.35714286       0.03571429 </v>
   <v>      -0.32142857       0.35714286       0.03571429 </v>
   <v>       0.42857143       0.39285714       0.03571429 </v>
   <v>       0.46428571       0.39285714       0.03571429 </v>
   <v>       0.50000000       0.39285714       0.03571429 </v>
   <v>      -0.46428571       0.39285714       0.03571429 </v>
   <v>      -0.42857143       0.39285714       0.03571429 </v>
   <v>      -0.39285714       0.39285714       0.03571429 </v>
   <v>      -0.35714286       0.39285714       0.03571429 </v>
   <v>       0.46428571       0.42857143       0.03571429 </v>
   <v>       0.50000000       0.42857143       0.03571429 </v>
   <v>      -0.46428571       0.42857143       0.03571429 </v>
   <v>      -0.42857143       0.42857143       0.03571429 </v>
   <v>      -0.39285714       0.42857143       0.03571429 </v>
   <v>       0.50000000       0.46428571       0.03571429 </v>
   <v>      -0.46428571       0.46428571       0.03571429 </v>
   <v>      -0.42857143       0.46428571       0.03571429 </v>
   <v>      -0.46428571       0.50000000       0.03571429 </v>
   <v>       0.21428571       0.14285714       0.07142857 </v>
   <v>       0.25000000       0.14285714       0.07142857 </v>
   <v>       0.28571429       0.14285714       0.07142857 </v>
   <v>       0.32142857       0.14285714       0.07142857 </v>
   <v>       0.35714286       0.14285714       0.07142857 </v>
   <v>       0.39285714       0.14285714       0.07142857 </v>
   <v>       0.42857143       0.14285714       0.07142857 </v>
   <v>       0.46428571       0.14285714       0.07142857 </v>
   <v>       0.50000000       0.14285714       0.07142857 </v>
   <v>      -0.46428571       0.14285714       0.07142857 </v>
   <v>      -0.42857143       0.14285714       0.07142857 </v>
   <v>       0.25000000       0.17857143       0.07142857 </v>
   <v>       0.28571429       0.17857143       0.07142857 </v>
   <v>       0.32142857       0.17857143       0.07142857 </v>
   <v>       0.35714286       0.17857143       0.07142857 </v>
   <v>       0.39285714       0.17857143       0.07142857 </v>
   <v>       0.42857143       0.17857143       0.07142857 </v>
   <v>       0.46428571       0.17857143       0.07142857 </v>
   <v>       0.50000000       0.17857143       0.07142857 </v>
   <v>      -0.46428571       0.17857143       0.07142857 </v>
   <v>      -0.42857143       0.17857143       0.07142857 </v>
   <v>      -0.39285714       0.17857143       0.07142857 </v>
   <v>      -0.35714286       0.17857143       0.07142857 </v>
   <v>      -0.32142857       0.17857143       0.07142857 </v>
   <v>      -0.28571429       0.17857143       0.07142857 </v>
   <v>      -0.25000000       0.17857143       0.07142857 </v>
   <v>      -0.21428571       0.17857143       0.07142857 </v>
   <v>      -0.17857143       0.17857143       0.07142857 </v>
   <v>      -0.14285714       0.17857143       0.07142857 </v>
   <v>      -0.10714286       0.17857143       0.07142857 </v>
   <v>       0.28571429       0.21428571       0.07142857 </v>
   <v>       0.32142857       0.21428571       0.07142857 </v>
   <v>       0.35714286       0.21428571       0.07142857 </v>
   <v>       0.39285714       0.21428571       0.07142857 </v>
   <v>       0.42857143       0.21428571       0.07142857 </v>
   <v>       0.46428571       0.21428571       0.07142857 </v>
   <v>       0.50000000       0.21428571       0.07142857 </v>
   <v>      -0.46428571       0.21428571       0.07142857 </v>
   <v>      -0.42857143       0.21428571       0.07142857 </v>
   <v>      -0.39285714       0.21428571       0.07142857 </v>
   <v>      -0.35714286       0.21428571       0.07142857 </v>
   <v>      -0.32142857       0.21428571       0.07142857 </v>
   <v>      -0.28571429       0.21428571       0.07142857 </v>
   <v>      -0.25000000       0.21428571       0.07142857 </v>
   <v>      -0.21428571       0.21428571       0.07142857 </v>
   <v>      -0.17857143       0.21428571       0.07142857 </v>
   <v>      -0.14285714       0.21428571       0.07142857 </v>
   <v>       0.32142857       0.25000000       0.07142857 </v>
   <v>       0.35714286       0.25000000       0.07142857 </v>
   <v>       0.39285714       0.25000000       0.07142857 </v>
   <v>       0.42857143       0.25000000       0.07142857 </v>
   <v>       0.46428571       0.25000000       0.07142857 </v>
   <v>       0.50000000       0.25000000       0.07142857 </v>
   <v>      -0.46428571       0.25000000       0.07142857 </v>
   <v>      -0.42857143       0.25000000       0.07142857 </v>
   <v>      -0.39285714       0.25000000       0.07142857 </v>
   <v>      -0.35714286       0.25000000       0.07142857 </v>
   <v>      -0.32142857       0.25000000       0.07142857 </v>
   <v>      -0.28571429       0.25000000       0.07142857 </v>
   <v>      -0.25000000       0.25000000       0.07142857 </v>
   <v>      -0.21428571       0.25000000       0.07142857 </v>
   <v>      -0.17857143       0.25000000       0.07142857 </v>
   <v>       0.35714286       0.28571429       0.07142857 </v>
   <v>       0.39285714       0.28571429       0.07142857 </v>
   <v>       0.42857143       0.28571429       0.07142857 </v>
   <v>       0.46428571       0.28571429       0.07142857 </v>
   <v>       0.50000000       0.28571429       0.07142857 </v>
   <v>      -0.46428571       0.28571429       0.07142857 </v>
   <v>      -0.42857143       0.28571429       0.07142857 </v>
   <v>      -0.39285714       0.28571429       0.07142857 </v>
   <v>      -0.35714286       0.28571429       0.07142857 </v>
   <v>      -0.32142857       0.28571429       0.07142857 </v>
   <v>      -0.28571429       0.28571429       0.07142857 </v>
   <v>      -0.25000000       0.28571429       0.07142857 </v>
   <v>      -0.21428571       0.28571429       0.07142857 </v>
   <v>       0.39285714       0.32142857       0.07142857 </v>
   <v>       0.42857143       0.32142857       0.07142857 </v>
   <v>       0.46428571       0.32142857       0.07142857 </v>
   <v>       0.50000000       0.32142857       0.07142857 </v>
   <v>      -0.46428571       0.32142857       0.07142857 </v>
   <v>      -0.42857143       0.32142857       0.07142857 </v>
   <v>      -0.39285714       0.32142857       0.07142857 </v>
   <v>      -0.35714286       0.32142857       0.07142857 </v>
   <v>      -0.32142857       0.32142857       0.07142857 </v>
   <v>      -0.28571429       0.32142857       0.07142857 </v>
   <v>      -0.25000000       0.32142857       0.07142857 </v>
   <v>       0.42857143       0.35714286       0.07142857 </v>
   <v>       0.46428571       0.35714286       0.07142857 </v>
   <v>       0.50000000       0.35714286       0.07142857 </v>
   <v>      -0.46428571       0.35714286       0.07142857 </v>
   <v>      -0.42857143       0.35714286       0.07142857 </v>
   <v>      -0.39285714       0.35714286       0.07142857 </v>
   <v>      -0.35714286       0.35714286       0.07142857 </v>
   <v>      -0.32142857       0.35714286       0.07142857 </v>
   <v>      -0.28571429       0.35714286       0.07142857 </v>
   <v>       0.46428571       0.39285714       0.07142857 </v>
   <v>       0.50000000       0.39285714       0.07142857 </v>
   <v>      -0.46428571       0.39285714       0.07142857 </v>
   <v>      -0.42857143       0.39285714       0.07142857 </v>
   <v>      -0.39285714       0.39285714       0.07142857 </v>
   <v>      -0.35714286       0.39285714       0.07142857 </v>
   <v>      -0.32142857       0.39285714       0.07142857 </v>
   <v>       0.50000000       0.42857143       0.07142857 </v>
   <v>      -0.46428571       0.42857143       0.07142857 </v>
   <v>      -0.42857143       0.42857143       0.07142857 </v>
   <v>      -0.39285714       0.42857143       0.07142857 </v>
   <v>      -0.35714286       0.42857143       0.07142857 </v>
   <v>      -0.46428571       0.46428571       0.07142857 </v>
   <v>      -0.42857143       0.46428571       0.07142857 </v>
   <v>      -0.39285714       0.46428571       0.07142857 </v>
   <v>      -0.42857143       0.50000000       0.07142857 </v>
   <v>       0.32142857       0.21428571       0.10714286 </v>
   <v>       0.35714286       0.21428571       0.10714286 </v>
   <v>       0.39285714       0.21428571       0.10714286 </v>
   <v>       0.42857143       0.21428571       0.10714286 </v>
   <v>       0.46428571       0.21428571       0.10714286 </v>
   <v>       0.50000000       0.21428571       0.10714286 </v>
   <v>      -0.46428571       0.21428571       0.10714286 </v>
   <v>      -0.42857143       0.21428571       0.10714286 </v>
   <v>      -0.39285714       0.21428571       0.10714286 </v>
   <v>       0.35714286       0.25000000       0.10714286 </v>
   <v>       0.39285714       0.25000000       0.10714286 </v>
   <v>       0.42857143       0.25000000       0.10714286 </v>
   <v>       0.46428571       0.25000000       0.10714286 </v>
   <v>       0.50000000       0.25000000       0.10714286 </v>
   <v>      -0.46428571       0.25000000       0.10714286 </v>
   <v>      -0.42857143       0.25000000       0.10714286 </v>
   <v>      -0.39285714       0.25000000       0.10714286 </v>
   <v>      -0.35714286       0.25000000       0.10714286 </v>
   <v>      -0.32142857       0.25000000       0.10714286 </v>
   <v>      -0.28571429       0.25000000       0.10714286 </v>
   <v>      -0.25000000       0.25000000       0.10714286 </v>
   <v>      -0.21428571       0.25000000       0.10714286 </v>
   <v>      -0.17857143       0.25000000       0.10714286 </v>
   <v>      -0.14285714       0.25000000       0.10714286 </v>
   <v>       0.39285714       0.28571429       0.10714286 </v>
   <v>       0.42857143       0.28571429       0.10714286 </v>
   <v>       0.46428571       0.28571429       0.10714286 </v>
   <v>       0.50000000       0.28571429       0.10714286 </v>
   <v>      -0.46428571       0.28571429       0.10714286 </v>
   <v>      -0.42857143       0.28571429       0.10714286 </v>
   <v>      -0.39285714       0.28571429       0.10714286 </v>
   <v>      -0.35714286       0.28571429       0.10714286 </v>
   <v>      -0.32142857       0.28571429       0.10714286 </v>
   <v>      -0.28571429       0.28571429       0.10714286 </v>
   <v>      -0.25000000       0.28571429       0.10714286 </v>
   <v>      -0.21428571       0.28571429       0.10714286 </v>
   <v>      -0.17857143       0.28571429       0.10714286 </v>
   <v>       0.42857143       0.32142857       0.10714286 </v>
   <v>       0.46428571       0.32142857       0.10714286 </v>
   <v>       0.50000000       0.32142857       0.10714286 </v>
   <v>      -0.46428571       0.32142857       0.10714286 </v>
   <v>      -0.42857143       0.32142857       0.10714286 </v>
   <v>      -0.39285714       0.32142857       0.10714286 </v>
   <v>      -0.35714286       0.32142857       0.10714286 </v>
   <v>      -0.32142857       0.32142857       0.10714286 </v>
   <v>      -0.28571429       0.32142857       0.10714286 </v>
   <v>      -0.25000000       0.32142857       0.10714286 </v>
   <v>      -0.21428571       0.32142857       0.10714286 </v>
   <v>       0.46428571       0.35714286       0.10714286 </v>
   <v>       0.50000000       0.35714286       0.10714286 </v>
   <v>      -0.46428571       0.35714286       0.10714286 </v>
   <v>      -0.42857143       0.35714286       0.10714286 </v>
   <v>      -0.39285714       0.35714286       0.10714286 </v>
   <v>      -0.35714286       0.35714286       0.10714286 </v>
   <v>      -0.32142857       0.35714286       0.10714286 </v>
   <v>      -0.28571429       0.35714286       0.10714286 </v>
   <v>      -0.25000000       0.35714286       0.10714286 </v>
   <v>       0.50000000       0.39285714       0.10714286 </v>
   <v>      -0.46428571       0.39285714       0.10714286 </v>
   <v>      -0.42857143       0.39285714       0.10714286 </v>
   <v>      -0.39285714       0.39285714       0.10714286 </v>
   <v>      -0.35714286       0.39285714       0.10714286 </v>
   <v>      -0.32142857       0.39285714       0.10714286 </v>
   <v>      -0.28571429       0.39285714       0.10714286 </v>
   <v>      -0.46428571       0.42857143       0.10714286 </v>
   <v>      -0.42857143       0.42857143       0.10714286 </v>
   <v>      -0.39285714       0.42857143       0.10714286 </v>
   <v>      -0.35714286       0.42857143       0.10714286 </v>
   <v>      -0.32142857       0.42857143       0.10714286 </v>
   <v>      -0.42857143       0.46428571       0.10714286 </v>
   <v>      -0.39285714       0.46428571       0.10714286 </v>
   <v>      -0.35714286       0.46428571       0.10714286 </v>
   <v>      -0.39285714       0.50000000       0.10714286 </v>
   <v>       0.42857143       0.28571429       0.14285714 </v>
   <v>       0.46428571       0.28571429       0.14285714 </v>
   <v>       0.50000000       0.28571429       0.14285714 </v>
   <v>      -0.46428571       0.28571429       0.14285714 </v>
   <v>      -0.42857143       0.28571429       0.14285714 </v>
   <v>      -0.39285714       0.28571429       0.14285714 </v>
   <v>      -0.35714286       0.28571429       0.14285714 </v>
   <v>       0.46428571       0.32142857       0.14285714 </v>
   <v>       0.50000000       0.32142857       0.14285714 </v>
   <v>      -0.46428571       0.32142857       0.14285714 </v>
   <v>      -0.42857143       0.32142857       0.14285714 </v>
   <v>      -0.39285714       0.32142857       0.14285714 </v>
   <v>      -0.35714286       0.32142857       0.14285714 </v>
   <v>      -0.32142857       0.32142857       0.14285714 </v>
   <v>      -0.28571429       0.32142857       0.14285714 </v>
   <v>      -0.25000000       0.32142857       0.14285714 </v>
   <v>      -0.21428571       0.32142857       0.14285714 </v>
   <v>      -0.17857143       0.32142857       0.14285714 </v>
   <v>       0.50000000       0.35714286       0.14285714 </v>
   <v>      -0.46428571       0.35714286       0.14285714 </v>
   <v>      -0.42857143       0.35714286       0.14285714 </v>
   <v>      -0.39285714       0.35714286       0.14285714 </v>
   <v>      -0.35714286       0.35714286       0.14285714 </v>
   <v>      -0.32142857       0.35714286       0.14285714 </v>
   <v>      -0.28571429       0.35714286       0.14285714 </v>
   <v>      -0.25000000       0.35714286       0.14285714 </v>
   <v>      -0.21428571       0.35714286       0.14285714 </v>
   <v>      -0.46428571       0.39285714       0.14285714 </v>
   <v>      -0.42857143       0.39285714       0.14285714 </v>
   <v>      -0.39285714       0.39285714       0.14285714 </v>
   <v>      -0.35714286       0.39285714       0.14285714 </v>
   <v>      -0.32142857       0.39285714       0.14285714 </v>
   <v>      -0.28571429       0.39285714       0.14285714 </v>
   <v>      -0.25000000       0.39285714       0.14285714 </v>
   <v>      -0.42857143       0.42857143       0.14285714 </v>
   <v>      -0.39285714       0.42857143       0.14285714 </v>
   <v>      -0.35714286       0.42857143       0.14285714 </v>
   <v>      -0.32142857       0.42857143       0.14285714 </v>
   <v>      -0.28571429       0.42857143       0.14285714 </v>
   <v>      -0.39285714       0.46428571       0.14285714 </v>
   <v>      -0.35714286       0.46428571       0.14285714 </v>
   <v>      -0.32142857       0.46428571       0.14285714 </v>
   <v>      -0.35714286       0.50000000       0.14285714 </v>
   <v>      -0.46428571       0.35714286       0.17857143 </v>
   <v>      -0.42857143       0.35714286       0.17857143 </v>
   <v>      -0.39285714       0.35714286       0.17857143 </v>
   <v>      -0.35714286       0.35714286       0.17857143 </v>
   <v>      -0.32142857       0.35714286       0.17857143 </v>
   <v>      -0.42857143       0.39285714       0.17857143 </v>
   <v>      -0.39285714       0.39285714       0.17857143 </v>
   <v>      -0.35714286       0.39285714       0.17857143 </v>
   <v>      -0.32142857       0.39285714       0.17857143 </v>
   <v>      -0.28571429       0.39285714       0.17857143 </v>
   <v>      -0.25000000       0.39285714       0.17857143 </v>
   <v>      -0.21428571       0.39285714       0.17857143 </v>
   <v>      -0.39285714       0.42857143       0.17857143 </v>
   <v>      -0.35714286       0.42857143       0.17857143 </v>
   <v>      -0.32142857       0.42857143       0.17857143 </v>
   <v>      -0.28571429       0.42857143       0.17857143 </v>
   <v>      -0.25000000       0.42857143       0.17857143 </v>
   <v>      -0.35714286       0.46428571       0.17857143 </v>
   <v>      -0.32142857       0.46428571       0.17857143 </v>
   <v>      -0.28571429       0.46428571       0.17857143 </v>
   <v>      -0.32142857       0.50000000       0.17857143 </v>
   <v>      -0.35714286       0.42857143       0.21428571 </v>
   <v>      -0.32142857       0.42857143       0.21428571 </v>
   <v>      -0.28571429       0.42857143       0.21428571 </v>
   <v>      -0.32142857       0.46428571       0.21428571 </v>
   <v>      -0.28571429       0.46428571       0.21428571 </v>
   <v>      -0.25000000       0.46428571       0.21428571 </v>
   <v>      -0.28571429       0.50000000       0.21428571 </v>
   <v>      -0.25000000       0.50000000       0.25000000 </v>
  </varray>
  <varray name="weights" >
   <v>       0.00004555 </v>
   <v>       0.00036443 </v>
   <v>       0.00036443 </v>
   <v>       0.00036443 </v>
   <v>       0.00036443 </v>
   <v>       0.00036443 </v>
   <v>       0.00036443 </v>
   <v>       0.00036443 </v>
   <v>       0.00036443 </v>
   <v>       0.00036443 </v>
   <v>       0.00036443 </v>
   <v>       0.00036443 </v>
   <v>       0.00036443 </v>
   <v>       0.00036443 </v>
   <v>       0.00018222 </v>
   <v>       0.00027332 </v>
   <v>       0.00109329 </v>
   <v>       0.00109329 </v>
   <v>       0.00109329 </v>
   <v>       0.00109329 </v>
   <v>       0.00109329 </v>
   <v>       0.00109329 </v>
   <v>       0.00109329 </v>
   <v>       0.00109329 </v>
   <v>       0.00109329 </v>
   <v>       0.00109329 </v>
   <v>       0.00109329 </v>
   <v>       0.00109329 </v>
   <v>       0.00109329 </v>
   <v>       0.00109329 </v>
   <v>       0.00109329 </v>
   <v>       0.00109329 </v>
   <v>       0.00109329 </v>
   <v>       0.00109329 </v>
   <v>       0.00109329 </v>
   <v>       0.00109329 </v>
   <v>       0.00109329 </v>
   <v>       0.00109329 </v>
   <v>       0.00109329 </v>
   <v>       0.00109329 </v>
   <v>       0.00109329 </v>
   <v>       0.00054665 </v>
   <v>       0.00027332 </v>
   <v>       0.00109329 </v>
   <v>       0.00109329 </v>
   <v>       0.00109329 </v>
   <v>       0.00109329 </v>
   <v>       0.00109329 </v>
   <v>       0.00109329 </v>
   <v>       0.00109329 </v>
   <v>       0.00109329 </v>
   <v>       0.00109329 </v>
   <v>       0.00109329 </v>
   <v>       0.00109329 </v>
   <v>       0.00109329 </v>
   <v>       0.00109329 </v>
   <v>       0.00109329 </v>
   <v>       0.00109329 </v>
   <v>       0.00109329 </v>
   <v>       0.00109329 </v>
   <v>       0.00109329 </v>
   <v>       0.00109329 </v>
   <v>       0.00109329 </v>
   <v>       0.00109329 </v>
   <v>       0.00109329 </v>
   <v>       0.00109329 </v>
   <v>       0.00054665 </v>
   <v>       0.00027332 </v>
   <v>       0.00109329 </v>
   <v>       0.00109329 </v>
   <v>       0.00109329 </v>
   <v>       0.00109329 </v>
   <v>       0.00109329 </v>
   <v>       0.00109329 </v>
   <v>       0.00109329 </v>
   <v>       0.00109329 </v>
   <v>       0.00109329 </v>
   <v>       0.00109329 </v>
   <v>       0.00109329 </v>
   <v>       0.00109329 </v>
   <v>       0.00109329 </v>
   <v>       0.00109329 </v>
   <v>       0.00109329 </v>
   <v>       0.00109329 </v>
   <v>       0.00109329 </v>
   <v>       0.00109329 </v>
   <v>       0.00109329 </v>
   <v>       0.00109329 </v>
   <v>       0.00109329 </v>
   <v>       0.00054665 </v>
   <v>       0.00027332 </v>
   <v>       0.00109329 </v>
   <v>       0.00109329 </v>
   <v>       0.00109329 </v>
   <v>       0.00109329 </v>
   <v>       0.00109329 </v>
   <v>       0.00109329 </v>
   <v>       0.00109329 </v>
   <v>       0.00109329 </v>
   <v>       0.00109329 </v>
   <v>       0.00109329 </v>
   <v>       0.00109329 </v>
   <v>       0.00109329 </v>
   <v>       0.00109329 </v>
   <v>       0.00109329 </v>
   <v>       0.00109329 </v>
   <v>       0.00109329 </v>
   <v>       0.00109329 </v>
   <v>       0.00109329 </v>
   <v>       0.00109329 </v>
   <v>       0.00054665 </v>
   <v>       0.00027332 </v>
   <v>       0.00109329 </v>
   <v>       0.00109329 </v>
   <v>       0.00109329 </v>
   <v>       0.00109329 </v>
   <v>       0.00109329 </v>
   <v>       0.00109329 </v>
   <v>       0.00109329 </v>
   <v>       0.00109329 </v>
   <v>       0.00109329 </v>
   <v>       0.00109329 </v>
   <v>       0.00109329 </v>
   <v>       0.00109329 </v>
   <v>       0.00109329 </v>
   <v>       0.00109329 </v>
   <v>       0.00109329 </v>
   <v>       0.00109329 </v>
   <v>       0.00109329 </v>
   <v>       0.00054665 </v>
   <v>       0.00027332 </v>
   <v>       0.00109329 </v>
   <v>       0.00109329 </v>
   <v>       0.00109329 </v>
   <v>       0.00109329 </v>
   <v>       0.00109329 </v>
   <v>       0.00109329 </v>
   <v>       0.00109329 </v>
   <v>       0.00109329 </v>
   <v>       0.00109329 </v>
   <v>       0.00109329 </v>
   <v>       0.00109329 </v>
   <v>       0.00109329 </v>
   <v>       0.00109329 </v>
   <v>       0.00109329 </v>
   <v>       0.00109329 </v>
   <v>       0.00054665 </v>
   <v>       0.00027332 </v>
   <v>       0.00109329 </v>
   <v>       0.00109329 </v>
   <v>       0.00109329 </v>
   <v>       0.00109329 </v>
   <v>       0.00109329 </v>
   <v>       0.00109329 </v>
   <v>       0.00109329 </v>
   <v>       0.00109329 </v>
   <v>       0.00109329 </v>
   <v>       0.00109329 </v>
   <v>       0.00109329 </v>
   <v>       0.00109329 </v>
   <v>       0.00109329 </v>
   <v>       0.00054665 </v>
   <v>       0.00027332 </v>
   <v>       0.00109329 </v>
   <v>       0.00109329 </v>
   <v>       0.00109329 </v>
   <v>       0.00109329 </v>
   <v>       0.00109329 </v>
   <v>       0.00109329 </v>
   <v>       0.00109329 </v>
   <v>       0.00109329 </v>
   <v>       0.00109329 </v>
   <v>       0.00109329 </v>
   <v>       0.00109329 </v>
   <v>       0.00054665 </v>
   <v>       0.00027332 </v>
   <v>       0.00109329 </v>
   <v>       0.00109329 </v>
   <v>       0.00109329 </v>
   <v>       0.00109329 </v>
   <v>       0.00109329 </v>
   <v>       0.00109329 </v>
   <v>       0.00109329 </v>
   <v>       0.00109329 </v>
   <v>       0.00109329 </v>
   <v>       0.00054665 </v>
   <v>       0.00027332 </v>
   <v>       0.00109329 </v>
   <v>       0.00109329 </v>
   <v>       0.00109329 </v>
   <v>       0.00109329 </v>
   <v>       0.00109329 </v>
   <v>       0.00109329 </v>
   <v>       0.00109329 </v>
   <v>       0.00054665 </v>
   <v>       0.00027332 </v>
   <v>       0.00109329 </v>
   <v>       0.00109329 </v>
   <v>       0.00109329 </v>
   <v>       0.00109329 </v>
   <v>       0.00109329 </v>
   <v>       0.00054665 </v>
   <v>       0.00027332 </v>
   <v>       0.00109329 </v>
   <v>       0.00109329 </v>
   <v>       0.00109329 </v>
   <v>       0.00054665 </v>
   <v>       0.00027332 </v>
   <v>       0.00109329 </v>
   <v>       0.00054665 </v>
   <v>       0.00013666 </v>
   <v>       0.00109329 </v>
   <v>       0.00218659 </v>
   <v>       0.00218659 </v>
   <v>       0.00218659 </v>
   <v>       0.00218659 </v>
   <v>       0.00218659 </v>
   <v>       0.00218659 </v>
   <v>       0.00218659 </v>
   <v>       0.00218659 </v>
   <v>       0.00218659 </v>
   <v>       0.00218659 </v>
   <v>       0.00218659 </v>
   <v>       0.00109329 </v>
   <v>       0.00109329 </v>
   <v>       0.00218659 </v>
   <v>       0.00218659 </v>
   <v>       0.00218659 </v>
   <v>       0.00218659 </v>
   <v>       0.00218659 </v>
   <v>       0.00218659 </v>
   <v>       0.00218659 </v>
   <v>       0.00218659 </v>
   <v>       0.00218659 </v>
   <v>       0.00218659 </v>
   <v>       0.00218659 </v>
   <v>       0.00218659 </v>
   <v>       0.00218659 </v>
   <v>       0.00218659 </v>
   <v>       0.00218659 </v>
   <v>       0.00218659 </v>
   <v>       0.00218659 </v>
   <v>       0.00218659 </v>
   <v>       0.00218659 </v>
   <v>       0.00218659 </v>
   <v>       0.00218659 </v>
   <v>       0.00109329 </v>
   <v>       0.00109329 </v>
   <v>       0.00218659 </v>
   <v>       0.00218659 </v>
   <v>       0.00218659 </v>
   <v>       0.00218659 </v>
   <v>       0.00218659 </v>
   <v>       0.00218659 </v>
   <v>       0.00218659 </v>
   <v>       0.00218659 </v>
   <v>       0.00218659 </v>
   <v>       0.00218659 </v>
   <v>       0.00218659 </v>
   <v>       0.00218659 </v>
   <v>       0.00218659 </v>
   <v>       0.00218659 </v>
   <v>       0.00218659 </v>
   <v>       0.00218659 </v>
   <v>       0.00218659 </v>
   <v>       0.00218659 </v>
   <v>       0.00218659 </v>
   <v>       0.00109329 </v>
   <v>       0.00109329 </v>
   <v>       0.00218659 </v>
   <v>       0.00218659 </v>
   <v>       0.00218659 </v>
   <v>       0.00218659 </v>
   <v>       0.00218659 </v>
   <v>       0.00218659 </v>
   <v>       0.00218659 </v>
   <v>       0.00218659 </v>
   <v>       0.00218659 </v>
   <v>       0.00218659 </v>
   <v>       0.00218659 </v>
   <v>       0.00218659 </v>
   <v>       0.00218659 </v>
   <v>       0.00218659 </v>
   <v>       0.00218659 </v>
   <v>       0.00218659 </v>
   <v>       0.00218659 </v>
   <v>       0.00109329 </v>
   <v>       0.00109329 </v>
   <v>       0.00218659 </v>
   <v>       0.00218659 </v>
   <v>       0.00218659 </v>
   <v>       0.00218659 </v>
   <v>       0.00218659 </v>
   <v>       0.00218659 </v>
   <v>       0.00218659 </v>
   <v>       0.00218659 </v>
   <v>       0.00218659 </v>
   <v>       0.00218659 </v>
   <v>       0.00218659 </v>
   <v>       0.00218659 </v>
   <v>       0.00218659 </v>
   <v>       0.00218659 </v>
   <v>       0.00218659 </v>
   <v>       0.00109329 </v>
   <v>       0.00109329 </v>
   <v>       0.00218659 </v>
   <v>       0.00218659 </v>
   <v>       0.00218659 </v>
   <v>       0.00218659 </v>
   <v>       0.00218659 </v>
   <v>       0.00218659 </v>
   <v>       0.00218659 </v>
   <v>       0.00218659 </v>
   <v>       0.00218659 </v>
   <v>       0.00218659 </v>
   <v>       0.00218659 </v>
   <v>       0.00218659 </v>
   <v>       0.00218659 </v>
   <v>       0.00109329 </v>
   <v>       0.00109329 </v>
   <v>       0.00218659 </v>
   <v>       0.00218659 </v>
   <v>       0.00218659 </v>
   <v>       0.00218659 </v>
   <v>       0.00218659 </v>
   <v>       0.00218659 </v>
   <v>       0.00218659 </v>
   <v>       0.00218659 </v>
   <v>       0.00218659 </v>
   <v>       0.00218659 </v>
   <v>       0.00218659 </v>
   <v>       0.00109329 </v>
   <v>       0.00109329 </v>
   <v>       0.00218659 </v>
   <v>       0.00218659 </v>
   <v>       0.00218659 </v>
   <v>       0.00218659 </v>
   <v>       0.00218659 </v>
   <v>       0.00218659 </v>
   <v>       0.00218659 </v>
   <v>       0.00218659 </v>
   <v>       0.00218659 </v>
   <v>       0.00109329 </v>
   <v>       0.00109329 </v>
   <v>       0.00218659 </v>
   <v>       0.00218659 </v>
   <v>       0.00218659 </v>
   <v>       0.00218659 </v>
   <v>       0.00218659 </v>
   <v>       0.00218659 </v>
   <v>       0.00218659 </v>
   <v>       0.00109329 </v>
   <v>       0.00109329 </v>
   <v>       0.00218659 </v>
   <v>       0.00218659 </v>
   <v>       0.00218659 </v>
   <v>       0.00218659 </v>
   <v>       0.00218659 </v>
   <v>       0.00109329 </v>
   <v>       0.00109329 </v>
   <v>       0.00218659 </v>
   <v>       0.00218659 </v>
   <v>       0.00218659 </v>
   <v>       0.00109329 </v>
   <v>       0.00109329 </v>
   <v>       0.00218659 </v>
   <v>       0.00109329 </v>
   <v>       0.00054665 </v>
   <v>       0.00109329 </v>
   <v>       0.00218659 </v>
   <v>       0.00218659 </v>
   <v>       0.00218659 </v>
   <v>       0.00218659 </v>
   <v>       0.00218659 </v>
   <v>       0.00218659 </v>
   <v>       0.00218659 </v>
   <v>       0.00218659 </v>
   <v>       0.00218659 </v>
   <v>       0.00109329 </v>
   <v>       0.00109329 </v>
   <v>       0.00218659 </v>
   <v>       0.00218659 </v>
   <v>       0.00218659 </v>
   <v>       0.00218659 </v>
   <v>       0.00218659 </v>
   <v>       0.00218659 </v>
   <v>       0.00218659 </v>
   <v>       0.00218659 </v>
   <v>       0.00218659 </v>
   <v>       0.00218659 </v>
   <v>       0.00218659 </v>
   <v>       0.00218659 </v>
   <v>       0.00218659 </v>
   <v>       0.00218659 </v>
   <v>       0.00218659 </v>
   <v>       0.00218659 </v>
   <v>       0.00218659 </v>
   <v>       0.00109329 </v>
   <v>       0.00109329 </v>
   <v>       0.00218659 </v>
   <v>       0.00218659 </v>
   <v>       0.00218659 </v>
   <v>       0.00218659 </v>
   <v>       0.00218659 </v>
   <v>       0.00218659 </v>
   <v>       0.00218659 </v>
   <v>       0.00218659 </v>
   <v>       0.00218659 </v>
   <v>       0.00218659 </v>
   <v>       0.00218659 </v>
   <v>       0.00218659 </v>
   <v>       0.00218659 </v>
   <v>       0.00218659 </v>
   <v>       0.00218659 </v>
   <v>       0.00109329 </v>
   <v>       0.00109329 </v>
   <v>       0.00218659 </v>
   <v>       0.00218659 </v>
   <v>       0.00218659 </v>
   <v>       0.00218659 </v>
   <v>       0.00218659 </v>
   <v>       0.00218659 </v>
   <v>       0.00218659 </v>
   <v>       0.00218659 </v>
   <v>       0.00218659 </v>
   <v>       0.00218659 </v>
   <v>       0.00218659 </v>
   <v>       0.00218659 </v>
   <v>       0.00218659 </v>
   <v>       0.00109329 </v>
   <v>       0.00109329 </v>
   <v>       0.00218659 </v>
   <v>       0.00218659 </v>
   <v>       0.00218659 </v>
   <v>       0.00218659 </v>
   <v>       0.00218659 </v>
   <v>       0.00218659 </v>
   <v>       0.00218659 </v>
   <v>       0.00218659 </v>
   <v>       0.00218659 </v>
   <v>       0.00218659 </v>
   <v>       0.00218659 </v>
   <v>       0.00109329 </v>
   <v>       0.00109329 </v>
   <v>       0.00218659 </v>
   <v>       0.00218659 </v>
   <v>       0.00218659 </v>
   <v>       0.00218659 </v>
   <v>       0.00218659 </v>
   <v>       0.00218659 </v>
   <v>       0.00218659 </v>
   <v>       0.00218659 </v>
   <v>       0.00218659 </v>
   <v>       0.00109329 </v>
   <v>       0.00109329 </v>
   <v>       0.00218659 </v>
   <v>       0.00218659 </v>
   <v>       0.00218659 </v>
   <v>       0.00218659 </v>
   <v>       0.00218659 </v>
   <v>       0.00218659 </v>
   <v>       0.00218659 </v>
   <v>       0.00109329 </v>
   <v>       0.00109329 </v>
   <v>       0.00218659 </v>
   <v>       0.00218659 </v>
   <v>       0.00218659 </v>
   <v>       0.00218659 </v>
   <v>       0.00218659 </v>
   <v>       0.00109329 </v>
   <v>       0.00109329 </v>
   <v>       0.00218659 </v>
   <v>       0.00218659 </v>
   <v>       0.00218659 </v>
   <v>       0.00109329 </v>
   <v>       0.00109329 </v>
   <v>       0.00218659 </v>
   <v>       0.00109329 </v>
   <v>       0.00054665 </v>
   <v>       0.00109329 </v>
   <v>       0.00218659 </v>
   <v>       0.00218659 </v>
   <v>       0.00218659 </v>
   <v>       0.00218659 </v>
   <v>       0.00218659 </v>
   <v>       0.00218659 </v>
   <v>       0.00218659 </v>
   <v>       0.00109329 </v>
   <v>       0.00109329 </v>
   <v>       0.00218659 </v>
   <v>       0.00218659 </v>
   <v>       0.00218659 </v>
   <v>       0.00218659 </v>
   <v>       0.00218659 </v>
   <v>       0.00218659 </v>
   <v>       0.00218659 </v>
   <v>       0.00218659 </v>
   <v>       0.00218659 </v>
   <v>       0.00218659 </v>
   <v>       0.00218659 </v>
   <v>       0.00218659 </v>
   <v>       0.00218659 </v>
   <v>       0.00109329 </v>
   <v>       0.00109329 </v>
   <v>       0.00218659 </v>
   <v>       0.00218659 </v>
   <v>       0.00218659 </v>
   <v>       0.00218659 </v>
   <v>       0.00218659 </v>
   <v>       0.00218659 </v>
   <v>       0.00218659 </v>
   <v>       0.00218659 </v>
   <v>       0.00218659 </v>
   <v>       0.00218659 </v>
   <v>       0.00218659 </v>
   <v>       0.00109329 </v>
   <v>       0.00109329 </v>
   <v>       0.00218659 </v>
   <v>       0.00218659 </v>
   <v>       0.00218659 </v>
   <v>       0.00218659 </v>
   <v>       0.00218659 </v>
   <v>       0.00218659 </v>
   <v>       0.00218659 </v>
   <v>       0.00218659 </v>
   <v>       0.00218659 </v>
   <v>       0.00109329 </v>
   <v>       0.00109329 </v>
   <v>       0.00218659 </v>
   <v>       0.00218659 </v>
   <v>       0.00218659 </v>
   <v>       0.00218659 </v>
   <v>       0.00218659 </v>
   <v>       0.00218659 </v>
   <v>       0.00218659 </v>
   <v>       0.00109329 </v>
   <v>       0.00109329 </v>
   <v>       0.00218659 </v>
   <v>       0.00218659 </v>
   <v>       0.00218659 </v>
   <v>       0.00218659 </v>
   <v>       0.00218659 </v>
   <v>       0.00109329 </v>
   <v>       0.00109329 </v>
   <v>       0.00218659 </v>
   <v>       0.00218659 </v>
   <v>       0.00218659 </v>
   <v>       0.00109329 </v>
   <v>       0.00109329 </v>
   <v>       0.00218659 </v>
   <v>       0.00109329 </v>
   <v>       0.00054665 </v>
   <v>       0.00109329 </v>
   <v>       0.00218659 </v>
   <v>       0.00218659 </v>
   <v>       0.00218659 </v>
   <v>       0.00218659 </v>
   <v>       0.00218659 </v>
   <v>       0.00109329 </v>
   <v>       0.00109329 </v>
   <v>       0.00218659 </v>
   <v>       0.00218659 </v>
   <v>       0.00218659 </v>
   <v>       0.00218659 </v>
   <v>       0.00218659 </v>
   <v>       0.00218659 </v>
   <v>       0.00218659 </v>
   <v>       0.00218659 </v>
   <v>       0.00218659 </v>
   <v>       0.00109329 </v>
   <v>       0.00109329 </v>
   <v>       0.00218659 </v>
   <v>       0.00218659 </v>
   <v>       0.00218659 </v>
   <v>       0.00218659 </v>
   <v>       0.00218659 </v>
   <v>       0.00218659 </v>
   <v>       0.00218659 </v>
   <v>       0.00109329 </v>
   <v>       0.00109329 </v>
   <v>       0.00218659 </v>
   <v>       0.00218659 </v>
   <v>       0.00218659 </v>
   <v>       0.00218659 </v>
   <v>       0.00218659 </v>
   <v>       0.00109329 </v>
   <v>       0.00109329 </v>
   <v>       0.00218659 </v>
   <v>       0.00218659 </v>
   <v>       0.00218659 </v>
   <v>       0.00109329 </v>
   <v>       0.00109329 </v>
   <v>       0.00218659 </v>
   <v>       0.00109329 </v>
   <v>       0.00054665 </v>
   <v>       0.00109329 </v>
   <v>       0.00218659 </v>
   <v>       0.00218659 </v>
   <v>       0.00218659 </v>
   <v>       0.00109329 </v>
   <v>       0.00109329 </v>
   <v>       0.00218659 </v>
   <v>       0.00218659 </v>
   <v>       0.00218659 </v>
   <v>       0.00218659 </v>
   <v>       0.00218659 </v>
   <v>       0.00109329 </v>
   <v>       0.00109329 </v>
   <v>       0.00218659 </v>
   <v>       0.00218659 </v>
   <v>       0.00218659 </v>
   <v>       0.00109329 </v>
   <v>       0.00109329 </v>
   <v>       0.00218659 </v>
   <v>       0.00109329 </v>
   <v>       0.00054665 </v>
   <v>       0.00109329 </v>
   <v>       0.00218659 </v>
   <v>       0.00109329 </v>
   <v>       0.00109329 </v>
   <v>       0.00218659 </v>
   <v>       0.00109329 </v>
   <v>       0.00054665 </v>
   <v>       0.00027332 </v>
  </varray>
 </kpoints>
 <parameters>
  <separator name="general" >
   <i type="string" name="SYSTEM">DFT Groundstate Calculation</i>
   <i type="logical" name="LCOMPAT"> F  </i>
  </separator>
  <separator name="electronic" >
   <i type="string" name="PREC">normal</i>
   <i name="ENMAX">    520.00000000</i>
   <i name="ENAUG">    322.06900000</i>
   <i name="EDIFF">      0.00000001</i>
   <i type="int" name="IALGO">    38</i>
   <i type="int" name="IWAVPR">    10</i>
   <i type="int" name="NBANDS">     8</i>
   <i type="int" name="NBANDSLOW">    -1</i>
   <i type="int" name="NBANDSHIGH">    -1</i>
   <i name="NELECT">      4.00000000</i>
   <i type="int" name="TURBO">     0</i>
   <i type="int" name="IRESTART">     0</i>
   <i type="int" name="NREBOOT">     0</i>
   <i type="int" name="NMIN">     0</i>
   <i name="EREF">      0.00000000</i>
   <separator name="electronic smearing" >
    <i type="int" name="ISMEAR">     0</i>
    <i name="SIGMA">      0.05000000</i>
    <i name="KSPACING">      0.10000000</i>
    <i type="logical" name="KGAMMA"> T  </i>
    <i type="logical" name="KBLOWUP"> T  </i>
   </separator>
   <separator name="electronic projectors" >
    <i type="logical" name="LREAL"> T  </i>
    <v name="ROPT">     -0.00050000</v>
    <i type="int" name="LMAXPAW">  -100</i>
    <i type="int" name="LMAXMIX">     2</i>
    <i type="logical" name="NLSPLINE"> F  </i>
   </separator>
   <separator name="electronic startup" >
    <i type="int" name="ISTART">     1</i>
    <i type="int" name="ICHARG">     0</i>
    <i type="int" name="INIWAV">     1</i>
   </separator>
   <separator name="electronic spin" >
    <i type="int" name="ISPIN">     1</i>
    <i type="logical" name="LNONCOLLINEAR"> F  </i>
    <v name="MAGMOM">      1.00000000</v>
    <i name="NUPDOWN">     -1.00000000</i>
    <i type="logical" name="LSORBIT"> F  </i>
    <v name="SAXIS">      0.00000000      0.00000000      1.00000000</v>
    <i type="logical" name="LSPIRAL"> F  </i>
    <v name="QSPIRAL">      0.00000000      0.00000000      0.00000000</v>
    <i type="logical" name="LZEROZ"> F  </i>
   </separator>
   <separator name="electronic exchange-correlation" >
    <i type="logical" name="LASPH"> F  </i>
    <i type="logical" name="LMETAGGA"> F  </i>
   </separator>
   <separator name="electronic convergence" >
    <i type="int" name="NELM">    60</i>
    <i type="int" name="NELMDL">     0</i>
    <i type="int" name="NELMIN">     2</i>
    <i name="ENINI">    520.00000000</i>
    <separator name="electronic convergence detail" >
     <i type="logical" name="LDIAG"> T  </i>
     <i type="logical" name="LSUBROT"> F  </i>
     <i name="WEIMIN">      0.00000000</i>
     <i name="EBREAK">      0.00000000</i>
     <i name="DEPER">      0.30000000</i>
     <i type="int" name="NRMM">     4</i>
     <i name="TIME">      0.40000000</i>
    </separator>
   </separator>
   <separator name="electronic mixer" >
    <i name="AMIX">      0.40000000</i>
    <i name="BMIX">      1.00000000</i>
    <i name="AMIN">      0.10000000</i>
    <i name="AMIX_MAG">      1.60000000</i>
    <i name="BMIX_MAG">      1.00000000</i>
    <separator name="electronic mixer details" >
     <i type="int" name="IMIX">     4</i>
     <i type="logical" name="MIXFIRST"> F  </i>
     <i type="int" name="MAXMIX">   -45</i>
     <i name="WC">    100.00000000</i>
     <i type="int" name="INIMIX">     1</i>
     <i type="int" name="MIXPRE">     1</i>
     <i type="int" name="MREMOVE">     5</i>
    </separator>
   </separator>
   <separator name="electronic dipolcorrection" >
    <i type="logical" name="LDIPOL"> F  </i>
    <i type="logical" name="LMONO"> F  </i>
    <i type="int" name="IDIPOL">     0</i>
    <i name="EPSILON">      1.00000000</i>
    <v name="DIPOL">   -100.00000000   -100.00000000   -100.00000000</v>
    <i name="EFIELD">      0.00000000</i>
   </separator>
  </separator>
  <separator name="grids" >
   <i type="int" name="NGX">    16</i>
   <i type="int" name="NGY">    16</i>
   <i type="int" name="NGZ">    16</i>
   <i type="int" name="NGXF">    32</i>
   <i type="int" name="NGYF">    32</i>
   <i type="int" name="NGZF">    32</i>
   <i type="logical" name="ADDGRID"> F  </i>
  </separator>
  <separator name="ionic" >
   <i type="int" name="NSW">     0</i>
   <i type="int" name="IBRION">    -1</i>
   <i type="int" name="MDALGO">     0</i>
   <i type="int" name="ISIF">     3</i>
   <i name="PSTRESS">      0.00000000</i>
   <i name="EDIFFG">      0.00000010</i>
   <i type="int" name="NFREE">     1</i>
   <i name="POTIM">      0.50000000</i>
   <i name="SMASS">     -3.00000000</i>
   <i name="SCALEE">      1.00000000</i>
  </separator>
  <separator name="ionic md" >
   <i name="TEBEG">      0.00010000</i>
   <i name="TEEND">      0.00010000</i>
   <i type="int" name="NBLOCK">     1</i>
   <i type="int" name="KBLOCK">     1</i>
   <i type="int" name="NPACO">   256</i>
   <i name="APACO">     10.00000000</i>
  </separator>
  <separator name="symmetry" >
   <i type="int" name="ISYM">     2</i>
   <i name="SYMPREC">      0.00001000</i>
  </separator>
  <separator name="dos" >
   <i type="int" name="LORBIT">     0</i>
   <v name="RWIGS">     -1.00000000</v>
   <i type="int" name="NEDOS">   301</i>
   <i name="EMIN">     10.00000000</i>
   <i name="EMAX">    -10.00000000</i>
   <i name="EFERMI">      0.00000000</i>
  </separator>
  <separator name="writing" >
   <i type="int" name="NWRITE">     2</i>
   <i type="logical" name="LWAVE"> T  </i>
   <i type="logical" name="LDOWNSAMPLE"> F  </i>
   <i type="logical" name="LCHARG"> T  </i>
   <i type="logical" name="LPARD"> F  </i>
   <i type="logical" name="LVTOT"> F  </i>
   <i type="logical" name="LVHAR"> F  </i>
   <i type="logical" name="LELF"> F  </i>
   <i type="logical" name="LOPTICS"> F  </i>
   <v name="STM">      0.00000000      0.00000000      0.00000000      0.00000000      0.00000000      0.00000000      0.00000000</v>
  </separator>
  <separator name="performance" >
   <i type="int" name="NPAR">     8</i>
   <i type="int" name="NSIM">     4</i>
   <i type="int" name="NBLK">    -1</i>
   <i type="logical" name="LPLANE"> T  </i>
   <i type="logical" name="LSCALAPACK"> T  </i>
   <i type="logical" name="LSCAAWARE"> F  </i>
   <i type="logical" name="LSCALU"> F  </i>
   <i type="logical" name="LASYNC"> F  </i>
   <i type="logical" name="LORBITALREAL"> F  </i>
  </separator>
  <separator name="miscellaneous" >
   <i type="int" name="IDIOT">     3</i>
   <i type="int" name="PHON_NSTRUCT">    -1</i>
   <i type="logical" name="LMUSIC"> F  </i>
   <v name="POMASS">     28.08500000</v>
   <v name="DARWINR">      0.00000000</v>
   <v name="DARWINV">      1.00000000</v>
   <i type="logical" name="LCORR"> T  </i>
  </separator>
  <i type="logical" name="GGA_COMPAT"> T  </i>
  <i type="logical" name="LBERRY"> F  </i>
  <i type="int" name="ICORELEVEL">     0</i>
  <i type="logical" name="LDAU"> F  </i>
  <i type="int" name="I_CONSTRAINED_M">     0</i>
  <separator name="electronic exchange-correlation" >
   <i type="string" name="GGA">--</i>
   <i type="int" name="VOSKOWN">     0</i>
   <i type="logical" name="LHFCALC"> F  </i>
   <i type="string" name="PRECFOCK"></i>
   <i type="logical" name="LSYMGRAD"> F  </i>
   <i type="logical" name="LHFONE"> F  </i>
   <i type="logical" name="LRHFCALC"> F  </i>
   <i type="logical" name="LTHOMAS"> F  </i>
   <i type="logical" name="LMODELHF"> F  </i>
   <i type="logical" name="LFOCKACE"> F  </i>
   <i name="ENCUT4O">     -1.00000000</i>
   <i type="int" name="EXXOEP">     0</i>
   <i type="int" name="FOURORBIT">     0</i>
   <i name="AEXX">      0.00000000</i>
   <i name="HFALPHA">      0.00000000</i>
   <i name="MCALPHA">      0.00000000</i>
   <i name="ALDAX">      1.00000000</i>
   <i name="AGGAX">      1.00000000</i>
   <i name="ALDAC">      1.00000000</i>
   <i name="AGGAC">      1.00000000</i>
   <i type="int" name="NKREDX">     1</i>
   <i type="int" name="NKREDY">     1</i>
   <i type="int" name="NKREDZ">     1</i>
   <i type="logical" name="SHIFTRED"> F  </i>
   <i type="logical" name="ODDONLY"> F  </i>
   <i type="logical" name="EVENONLY"> F  </i>
   <i type="int" name="LMAXFOCK">     0</i>
   <i type="int" name="NMAXFOCKAE">     0</i>
   <i type="logical" name="LFOCKAEDFT"> F  </i>
   <i name="HFSCREEN">      0.00000000</i>
   <i name="HFSCREENC">      0.00000000</i>
   <i type="int" name="NBANDSGWLOW">     0</i>
  </separator>
  <separator name="vdW DFT" >
   <i type="logical" name="LUSE_VDW"> F  </i>
   <i name="Zab_VDW">     -0.84910000</i>
   <i name="PARAM1">      0.12340000</i>
   <i name="PARAM2">      1.00000000</i>
   <i name="PARAM3">      0.00000000</i>
  </separator>
  <separator name="model GW" >
   <i type="int" name="MODEL_GW">     0</i>
   <i name="MODEL_EPS0">      8.89785000</i>
   <i name="MODEL_ALPHA">      1.00000000</i>
  </separator>
  <separator name="linear response parameters" >
   <i type="logical" name="LEPSILON"> F  </i>
   <i type="logical" name="LRPA"> F  </i>
   <i type="logical" name="LNABLA"> F  </i>
   <i type="logical" name="LVEL"> F  </i>
   <i name="CSHIFT">      0.10000000</i>
   <i name="OMEGAMAX">     -1.00000000</i>
   <i name="DEG_THRESHOLD">      0.00200000</i>
   <i name="RTIME">     -0.10000000</i>
   <i name="WPLASMAI">      0.00000000</i>
   <v name="DFIELD">      0.00000000      0.00000000      0.00000000</v>
   <v name="WPLASMA">      0.00000000      0.00000000      0.00000000      0.00000000      0.00000000      0.00000000      0.00000000      0.00000000      0.00000000</v>
  </separator>
  <separator name="orbital magnetization" >
   <i type="logical" name="NUCIND"> F  </i>
   <v name="MAGPOS">      0.00000000      0.00000000      0.00000000</v>
   <i type="logical" name="LNICSALL"> T  </i>
   <i type="logical" name="ORBITALMAG"> F  </i>
   <i type="logical" name="LMAGBLOCH"> F  </i>
   <i type="logical" name="LCHIMAG"> F  </i>
   <i type="logical" name="LGAUGE"> T  </i>
   <i type="int" name="MAGATOM">     0</i>
   <v name="MAGDIPOL">      0.00000000      0.00000000      0.00000000</v>
   <v name="AVECCONST">      0.00000000      0.00000000      0.00000000</v>
  </separator>
  <separator name="response functions" >
   <i type="logical" name="LFINITE_TEMPERATURE"> F  </i>
   <i type="logical" name="LADDER"> F  </i>
   <i type="logical" name="LRPAFORCE"> F  </i>
   <i type="logical" name="LFXC"> F  </i>
   <i type="logical" name="LHARTREE"> T  </i>
   <i type="int" name="IBSE">     0</i>
   <v type="int" name="KPOINT">    -1     0     0     0</v>
   <i type="logical" name="LTCTC"> F  </i>
   <i type="logical" name="LTCTE"> F  </i>
   <i type="logical" name="LTETE"> F  </i>
   <i type="logical" name="LTRIPLET"> F  </i>
   <i type="logical" name="LFXCEPS"> F  </i>
   <i type="logical" name="LFXHEG"> F  </i>
   <i type="int" name="NATURALO">     2</i>
   <i type="logical" name="LHOLEGF"> F  </i>
   <i type="logical" name="L2ORDER"> F  </i>
   <i type="logical" name="LDMP1"> F  </i>
   <i type="logical" name="LMP2LT"> F  </i>
   <i type="logical" name="LSMP2LT"> F  </i>
   <i type="logical" name="LGWLF"> F  </i>
   <i name="ENCUTGW">     -2.00000000</i>
   <i name="ENCUTGWSOFT">     -2.00000000</i>
   <i name="ENCUTLF">     -1.00000000</i>
   <i type="logical" name="LESF_SPLINES"> F  </i>
   <i type="int" name="LMAXMP2">    -1</i>
   <i name="SCISSOR">      0.00000000</i>
   <i type="int" name="NOMEGA">     0</i>
   <i type="int" name="NOMEGAR">     0</i>
   <i type="int" name="NBANDSGW">    -1</i>
   <i type="int" name="NBANDSO">    -1</i>
   <i type="int" name="NBANDSV">    -1</i>
   <i type="int" name="NELMGW">     1</i>
   <i type="int" name="NELMHF">     1</i>
   <i type="int" name="DIM">     3</i>
   <i type="int" name="IESPILON">     4</i>
   <i type="int" name="ANTIRES">     0</i>
   <i name="OMEGAMAX">    -30.00000000</i>
   <i name="OMEGAMIN">    -30.00000000</i>
   <i name="OMEGATL">   -200.00000000</i>
   <i type="int" name="OMEGAGRID">     0</i>
   <i name="CSHIFT">     -0.10000000</i>
   <i type="logical" name="LSELFENERGY"> F  </i>
   <i type="logical" name="LSPECTRAL"> F  </i>
   <i type="logical" name="LSPECTRALGW"> F  </i>
   <i type="logical" name="LSINGLES"> F  </i>
   <i type="logical" name="LFERMIGW"> F  </i>
   <i type="logical" name="ODDONLYGW"> F  </i>
   <i type="logical" name="EVENONLYGW"> F  </i>
   <i type="int" name="NKREDLFX">     1</i>
   <i type="int" name="NKREDLFY">     1</i>
   <i type="int" name="NKREDLFZ">     1</i>
   <i type="int" name="MAXMEM">  2800</i>
   <i type="int" name="TELESCOPE">     0</i>
   <i type="int" name="NTAUPAR">    -1</i>
   <i type="int" name="NOMEGAPAR">    -1</i>
   <i name="DAMP_NEWTON">      0.80000001</i>
   <i name="LAMBDA">      1.00000000</i>
  </separator>
  <separator name="External order field" >
   <i name="OFIELD_KAPPA">      0.00000000</i>
   <v name="OFIELD_K">      0.00000000      0.00000000      0.00000000</v>
   <i name="OFIELD_Q6_NEAR">      0.00000000</i>
   <i name="OFIELD_Q6_FAR">      0.00000000</i>
   <i name="OFIELD_A">      0.00000000</i>
  </separator>
  <separator name="optional k-points parameters" >
   <i type="int" name="KPOINTS_OPT_MODE">     1</i>
   <i type="logical" name="LKPOINTS_OPT"> F  </i>
  </separator>
 </parameters>
 <atominfo>
  <atoms>       1 </atoms>
  <types>       1 </types>
  <array name="atoms" >
   <dimension dim="1">ion</dimension>
   <field type="string">element</field>
   <field type="int">atomtype</field>
   <set>
    <rc><c>Si</c><c>   1</c></rc>
   </set>
  </array>
  <array name="atomtypes" >
   <dimension dim="1">type</dimension>
   <field type="int">atomspertype</field>
   <field type="string">element</field>
   <field>mass</field>
   <field>valence</field>
   <field type="string">pseudopotential</field>
   <set>
    <rc><c>   1</c><c>Si</c><c>     28.08500000</c><c>      4.00000000</c><c> PAW_PBE Si 05Jan2001                   </c></rc>
   </set>
  </array>
 </atominfo>
 <structure name="initialpos" >
  <crystal>
   <varray name="basis" >
    <v>       1.95000000       1.95000000       0.00000000 </v>
    <v>       0.00000000       1.95000000       1.95000000 </v>
    <v>       1.95000000       0.00000000       1.95000000 </v>
   </varray>
   <i name="volume">     14.82975000 </i>
   <varray name="rec_basis" >
    <v>       0.25641026       0.25641026      -0.25641026 </v>
    <v>      -0.25641026       0.25641026       0.25641026 </v>
    <v>       0.25641026      -0.25641026       0.25641026 </v>
   </varray>
  </crystal>
  <varray name="positions" >
   <v>       0.00000000       0.00000000       0.00000000 </v>
  </varray>
 </structure>
 <calculation>
  <scstep>
   <time name="dav">    0.28    0.33</time>
   <time name="total">    0.30    0.42</time>
   <energy>
    <i name="alphaZ">      2.26996938 </i>
    <i name="ewald">   -135.42777035 </i>
    <i name="hartreedc">     -0.48604174 </i>
    <i name="XCdc">     -8.82472799 </i>
    <i name="pawpsdc">     33.62589047 </i>
    <i name="pawaedc">    -16.03570730 </i>
    <i name="eentropy">     -0.00044303 </i>
    <i name="bandstr">     16.92459242 </i>
    <i name="atom">    103.06635137 </i>
    <i name="e_fr_energy">     -4.88788676 </i>
    <i name="e_wo_entrp">     -4.88744373 </i>
    <i name="e_0_energy">     -4.88766525 </i>
   </energy>
  </scstep>
  <scstep>
   <time name="dav">    0.24    0.24</time>
   <time name="total">    0.24    0.33</time>
   <energy>
    <i name="alphaZ">      2.26996938 </i>
    <i name="ewald">   -135.42777035 </i>
    <i name="hartreedc">     -0.48604174 </i>
    <i name="XCdc">     -8.82472799 </i>
    <i name="pawpsdc">     33.62589047 </i>
    <i name="pawaedc">    -16.03570730 </i>
    <i name="eentropy">     -0.00044303 </i>
    <i name="bandstr">     16.92459242 </i>
    <i name="atom">    103.06635137 </i>
    <i name="e_fr_energy">     -4.88788676 </i>
    <i name="e_wo_entrp">     -4.88744373 </i>
    <i name="e_0_energy">     -4.88766525 </i>
   </energy>
  </scstep>
  <structure>
   <crystal>
    <varray name="basis" >
     <v>       1.95000000       1.95000000       0.00000000 </v>
     <v>       0.00000000       1.95000000       1.95000000 </v>
     <v>       1.95000000       0.00000000       1.95000000 </v>
    </varray>
    <i name="volume">     14.82975000 </i>
    <varray name="rec_basis" >
     <v>       0.25641026       0.25641026      -0.25641026 </v>
     <v>      -0.25641026       0.25641026       0.25641026 </v>
     <v>       0.25641026      -0.25641026       0.25641026 </v>
    </varray>
   </crystal>
   <varray name="positions" >
    <v>       0.00000000       0.00000000       0.00000000 </v>
   </varray>
  </structure>
  <varray name="forces" >
   <v>      -0.00000000       0.00000000      -0.00000000 </v>
  </varray>
  <varray name="stress" >
   <v>     -17.36843948      -0.00000000       0.00000000 </v>
   <v>       0.00000000     -17.36843948      -0.00000000 </v>
   <v>      -0.00000000       0.00000000     -17.36843948 </v>
  </varray>
  <energy>
   <i name="e_fr_energy">     -4.88788676 </i>
   <i name="e_wo_entrp">     -4.88744373 </i>
   <i name="e_0_energy">     -4.88766525 </i>
  </energy>
  <time name="totalsc">    1.21    3.85</time>
  <eigenvalues>
   <array>
    <dimension dim="1">band</dimension>
    <dimension dim="2">kpoint</dimension>
    <dimension dim="3">spin</dimension>
    <field>eigene</field>
    <field>occ</field>
    <set>
     <set comment="spin 1">
      <set comment="kpoint 1">
       <r>   -4.3794    1.0000 </r>
       <r>   20.6927    0.0000 </r>
       <r>   20.6927    0.0000 </r>
       <r>   20.6927    0.0000 </r>
       <r>   21.6823    0.0000 </r>
       <r>   21.6823    0.0000 </r>
       <r>   21.6823    0.0000 </r>
       <r>   26.9627    0.0000 </r>
      </set>
      <set comment="kpoint 2">
       <r>   -4.3428    1.0000 </r>
       <r>   19.8502    0.0000 </r>
       <r>   20.4556    0.0000 </r>
       <r>   20.4556    0.0000 </r>
       <r>   21.9651    0.0000 </r>
       <r>   21.9651    0.0000 </r>
       <r>   22.1997    0.0000 </r>
       <r>   27.2698    0.0000 </r>
      </set>
      <set comment="kpoint 3">
       <r>   -4.2333    1.0000 </r>
       <r>   18.4889    0.0000 </r>
       <r>   20.0425    0.0000 </r>
       <r>   20.0425    0.0000 </r>
       <r>   22.5075    0.0000 </r>
       <r>   22.5075    0.0000 </r>
       <r>   22.6611    0.0000 </r>
       <r>   27.7087    0.0000 </r>
      </set>
      <set comment="kpoint 4">
       <r>   -4.0508    1.0000 </r>
       <r>   17.0164    0.0000 </r>
       <r>   19.6360    0.0000 </r>
       <r>   19.6360    0.0000 </r>
       <r>   22.8542    0.0000 </r>
       <r>   23.0945    0.0000 </r>
       <r>   23.0945    0.0000 </r>
       <r>   27.1450    0.0000 </r>
      </set>
      <set comment="kpoint 5">
       <r>   -3.7956    1.0000 </r>
       <r>   15.5155    0.0000 </r>
       <r>   19.2717    0.0000 </r>
       <r>   19.2717    0.0000 </r>
       <r>   22.8895    0.0000 </r>
       <r>   23.5984    0.0000 </r>
       <r>   23.5984    0.0000 </r>
       <r>   26.6739    0.0000 </r>
      </set>
      <set comment="kpoint 6">
       <r>   -3.4680    1.0000 </r>
       <r>   14.0228    0.0000 </r>
       <r>   18.9588    0.0000 </r>
       <r>   18.9588    0.0000 </r>
       <r>   22.8522    0.0000 </r>
       <r>   23.8051    0.0000 </r>
       <r>   23.8051    0.0000 </r>
       <r>   26.5587    0.0000 </r>
      </set>
      <set comment="kpoint 7">
       <r>   -3.0684    1.0000 </r>
       <r>   12.5583    0.0000 </r>
       <r>   18.7002    0.0000 </r>
       <r>   18.7002    0.0000 </r>
       <r>   22.7913    0.0000 </r>
       <r>   23.5836    0.0000 </r>
       <r>   23.5836    0.0000 </r>
       <r>   26.9572    0.0000 </r>
      </set>
      <set comment="kpoint 8">
       <r>   -2.5973    1.0000 </r>
       <r>   11.1339    0.0000 </r>
       <r>   18.4961    0.0000 </r>
       <r>   18.4961    0.0000 </r>
       <r>   22.7344    0.0000 </r>
       <r>   23.1153    0.0000 </r>
       <r>   23.1153    0.0000 </r>
       <r>   27.7017    0.0000 </r>
      </set>
      <set comment="kpoint 9">
       <r>   -2.0553    1.0000 </r>
       <r>    9.7571    0.9983 </r>
       <r>   18.3448    0.0000 </r>
       <r>   18.3448    0.0000 </r>
       <r>   22.5808    0.0000 </r>
[...]
      <set comment="kpoint 613">
       <r>    4.8102    1.0000 </r>
       <r>    7.4092    1.0000 </r>
       <r>    8.3653    1.0000 </r>
       <r>    9.4145    1.0000 </r>
       <r>   21.1782    0.0000 </r>
       <r>   21.9616    0.0000 </r>
       <r>   27.6493    0.0000 </r>
       <r>   29.8213    0.0000 </r>
      </set>
      <set comment="kpoint 614">
       <r>    5.6251    1.0000 </r>
       <r>    6.9581    1.0000 </r>
       <r>    7.7235    1.0000 </r>
       <r>    9.3004    1.0000 </r>
       <r>   21.6727    0.0000 </r>
       <r>   22.9575    0.0000 </r>
       <r>   27.2195    0.0000 </r>
       <r>   28.5996    0.0000 </r>
      </set>
      <set comment="kpoint 615">
       <r>    6.3077    1.0000 </r>
       <r>    6.3912    1.0000 </r>
       <r>    7.2752    1.0000 </r>
       <r>    9.4999    1.0000 </r>
       <r>   21.9682    0.0000 </r>
       <r>   24.1633    0.0000 </r>
       <r>   26.5403    0.0000 </r>
       <r>   27.7457    0.0000 </r>
      </set>
      <set comment="kpoint 616">
       <r>    5.7578    1.0000 </r>
       <r>    6.4117    1.0000 </r>
       <r>    8.3197    1.0000 </r>
       <r>    9.3361    1.0000 </r>
       <r>   21.1346    0.0000 </r>
       <r>   21.9309    0.0000 </r>
       <r>   28.3858    0.0000 </r>
       <r>   29.0668    0.0000 </r>
      </set>
      <set comment="kpoint 617">
       <r>    4.1759    1.0000 </r>
       <r>    7.7261    1.0000 </r>
       <r>    8.3672    1.0000 </r>
       <r>    9.7270    0.9999 </r>
       <r>   23.0302    0.0000 </r>
       <r>   23.1316    0.0000 </r>
       <r>   25.2600    0.0000 </r>
       <r>   29.2969    0.0000 </r>
      </set>
      <set comment="kpoint 618">
       <r>    5.0211    1.0000 </r>
       <r>    6.9489    1.0000 </r>
       <r>    8.2657    1.0000 </r>
       <r>    9.3689    1.0000 </r>
       <r>   23.1479    0.0000 </r>
       <r>   23.9707    0.0000 </r>
       <r>   25.2870    0.0000 </r>
       <r>   28.1186    0.0000 </r>
      </set>
      <set comment="kpoint 619">
       <r>    5.7187    1.0000 </r>
       <r>    6.2203    1.0000 </r>
       <r>    8.3082    1.0000 </r>
       <r>    9.2265    1.0000 </r>
       <r>   23.1700    0.0000 </r>
       <r>   24.2479    0.0000 </r>
       <r>   25.5685    0.0000 </r>
       <r>   27.4683    0.0000 </r>
      </set>
      <set comment="kpoint 620">
       <r>    5.3044    1.0000 </r>
       <r>    7.5891    1.0000 </r>
       <r>    7.6926    1.0000 </r>
       <r>    8.8911    1.0000 </r>
       <r>   22.9027    0.0000 </r>
       <r>   23.2210    0.0000 </r>
       <r>   25.9746    0.0000 </r>
       <r>   28.3147    0.0000 </r>
      </set>
      <set comment="kpoint 621">
       <r>    6.1331    1.0000 </r>
       <r>    6.8118    1.0000 </r>
       <r>    7.5539    1.0000 </r>
       <r>    8.7601    1.0000 </r>
       <r>   23.2366    0.0000 </r>
       <r>   24.1944    0.0000 </r>
       <r>   25.5142    0.0000 </r>
       <r>   27.3598    0.0000 </r>
      </set>
      <set comment="kpoint 622">
       <r>    5.8663    1.0000 </r>
       <r>    6.9029    1.0000 </r>
       <r>    7.5687    1.0000 </r>
       <r>    8.9635    1.0000 </r>
       <r>   23.3833    0.0000 </r>
       <r>   24.6942    0.0000 </r>
       <r>   24.9950    0.0000 </r>
       <r>   27.2708    0.0000 </r>
      </set>
      <set comment="kpoint 623">
       <r>    6.2619    1.0000 </r>
       <r>    6.7944    1.0000 </r>
       <r>    7.5434    1.0000 </r>
       <r>    8.7039    1.0000 </r>
       <r>   22.8601    0.0000 </r>
       <r>   23.2373    0.0000 </r>
       <r>   26.5008    0.0000 </r>
       <r>   27.7065    0.0000 </r>
      </set>
      <set comment="kpoint 624">
       <r>    6.8572    1.0000 </r>
       <r>    6.8572    1.0000 </r>
       <r>    7.0010    1.0000 </r>
       <r>    8.4135    1.0000 </r>
       <r>   23.9274    0.0000 </r>
       <r>   24.6529    0.0000 </r>
       <r>   24.6529    0.0000 </r>
       <r>   26.9955    0.0000 </r>
      </set>
     </set>
    </set>
   </array>
  </eigenvalues>
  <separator name="orbital magnetization" >
   <v name="MAGDIPOLOUT">      0.00000000      0.00000000      0.00000000</v>
  </separator>
  <dos>
   <i name="efermi">      9.86051029 </i>
   <total>
    <array>
     <dimension dim="1">gridpoints</dimension>
     <dimension dim="2">spin</dimension>
     <field>energy</field>
     <field>total</field>
     <field>integrated</field>
     <set>
      <set comment="spin 1">
       <r>    -6.3817     0.0000     0.0000 </r>
       <r>    -6.2349     0.0000     0.0000 </r>
       <r>    -6.0881     0.0000     0.0000 </r>
       <r>    -5.9412     0.0000     0.0000 </r>
       <r>    -5.7944     0.0000     0.0000 </r>
       <r>    -5.6475     0.0000     0.0000 </r>
       <r>    -5.5007     0.0000     0.0000 </r>
       <r>    -5.3539     0.0000     0.0000 </r>
       <r>    -5.2070     0.0000     0.0000 </r>
       <r>    -5.0602     0.0000     0.0000 </r>
       <r>    -4.9133     0.0000     0.0000 </r>
       <r>    -4.7665     0.0000     0.0000 </r>
       <r>    -4.6197     0.0000     0.0000 </r>
       <r>    -4.4728     0.0000     0.0000 </r>
       <r>    -4.3260     0.0070     0.0010 </r>
       <r>    -4.1792     0.0354     0.0062 </r>
       <r>    -4.0323     0.0568     0.0146 </r>
       <r>    -3.8855     0.0731     0.0253 </r>
       <r>    -3.7386     0.0724     0.0359 </r>
       <r>    -3.5918     0.0934     0.0496 </r>
       <r>    -3.4450     0.0992     0.0642 </r>
       <r>    -3.2981     0.1167     0.0813 </r>
       <r>    -3.1513     0.0991     0.0959 </r>
       <r>    -3.0045     0.1332     0.1154 </r>
       <r>    -2.8576     0.1158     0.1324 </r>
       <r>    -2.7108     0.1544     0.1551 </r>
       <r>    -2.5639     0.1341     0.1748 </r>
       <r>    -2.4171     0.1336     0.1944 </r>
       <r>    -2.2703     0.1712     0.2196 </r>
       <r>    -2.1234     0.1750     0.2453 </r>
       <r>    -1.9766     0.1298     0.2643 </r>
       <r>    -1.8297     0.1840     0.2913 </r>
       <r>    -1.6829     0.1864     0.3187 </r>
       <r>    -1.5361     0.1667     0.3432 </r>
       <r>    -1.3892     0.1801     0.3696 </r>
       <r>    -1.2424     0.2061     0.3999 </r>
       <r>    -1.0956     0.1856     0.4271 </r>
       <r>    -0.9487     0.1963     0.4560 </r>
       <r>    -0.8019     0.1911     0.4840 </r>
       <r>    -0.6550     0.2514     0.5209 </r>
       <r>    -0.5082     0.1838     0.5479 </r>
       <r>    -0.3614     0.2075     0.5784 </r>
       <r>    -0.2145     0.2405     0.6137 </r>
       <r>    -0.0677     0.2289     0.6473 </r>
       <r>     0.0791     0.2369     0.6821 </r>
       <r>     0.2260     0.2004     0.7115 </r>
       <r>     0.3728     0.2491     0.7481 </r>
       <r>     0.5197     0.2552     0.7856 </r>
       <r>     0.6665     0.2683     0.8250 </r>
       <r>     0.8133     0.2230     0.8577 </r>
       <r>     0.9602     0.2407     0.8930 </r>
       <r>     1.1070     0.2520     0.9300 </r>
       <r>     1.2539     0.3217     0.9773 </r>
       <r>     1.4007     0.2141     1.0087 </r>
       <r>     1.5475     0.3002     1.0528 </r>
       <r>     1.6944     0.2613     1.0912 </r>
       <r>     1.8412     0.2388     1.1262 </r>
       <r>     1.9880     0.3308     1.1748 </r>
       <r>     2.1349     0.3096     1.2203 </r>
       <r>     2.2817     0.2610     1.2586 </r>
       <r>     2.4286     0.3205     1.3057 </r>
       <r>     2.5754     0.2595     1.3438 </r>
       <r>     2.7222     0.3418     1.3940 </r>
       <r>     2.8691     0.2856     1.4359 </r>
       <r>     3.0159     0.3131     1.4819 </r>
       <r>     3.1628     0.2446     1.5178 </r>
       <r>     3.3096     0.2340     1.5522 </r>
       <r>     3.4564     0.3578     1.6047 </r>
       <r>     3.6033     0.3104     1.6503 </r>
       <r>     3.7501     0.3589     1.7030 </r>
       <r>     3.8969     0.2909     1.7457 </r>
       <r>     4.0438     0.2478     1.7821 </r>
       <r>     4.1906     0.3405     1.8321 </r>
       <r>     4.3375     0.3937     1.8899 </r>
       <r>     4.4843     0.3213     1.9370 </r>
       <r>     4.6311     0.3551     1.9892 </r>
       <r>     4.7780     0.2875     2.0314 </r>
       <r>     4.9248     0.3380     2.0810 </r>
       <r>     5.0716     0.4388     2.1455 </r>
       <r>     5.2185     0.2469     2.1817 </r>
       <r>     5.3653     0.3329     2.2306 </r>
       <r>     5.5122     0.3681     2.2847 </r>
       <r>     5.6590     0.3596     2.3375 </r>
       <r>     5.8058     0.3673     2.3914 </r>
       <r>     5.9527     0.2888     2.4338 </r>
       <r>     6.0995     0.4530     2.5003 </r>
       <r>     6.2464     0.3314     2.5490 </r>
       <r>     6.3932     0.4327     2.6125 </r>
       <r>     6.5400     0.3753     2.6676 </r>
       <r>     6.6869     0.3597     2.7204 </r>
       <r>     6.8337     0.3731     2.7752 </r>
       <r>     6.9805     0.2962     2.8187 </r>
       <r>     7.1274     0.4093     2.8788 </r>
       <r>     7.2742     0.3471     2.9298 </r>
       <r>     7.4211     0.4190     2.9913 </r>
       <r>     7.5679     0.3781     3.0468 </r>
       <r>     7.7147     0.4391     3.1113 </r>
       <r>     7.8616     0.4609     3.1790 </r>
       <r>     8.0084     0.2970     3.2226 </r>
       <r>     8.1552     0.3342     3.2717 </r>
       <r>     8.3021     0.4669     3.3402 </r>
       <r>     8.4489     0.4289     3.4032 </r>
       <r>     8.5958     0.4040     3.4626 </r>
       <r>     8.7426     0.4469     3.5282 </r>
       <r>     8.8894     0.3996     3.5869 </r>
       <r>     9.0363     0.3687     3.6410 </r>
       <r>     9.1831     0.3336     3.6900 </r>
       <r>     9.3300     0.4727     3.7594 </r>
       <r>     9.4768     0.5750     3.8438 </r>
       <r>     9.6236     0.3983     3.9023 </r>
       <r>     9.7705     0.3985     3.9608 </r>
       <r>     9.9173     0.3881     4.0178 </r>
       <r>    10.0641     0.4235     4.0800 </r>
       <r>    10.2110     0.4760     4.1499 </r>
       <r>    10.3578     0.4734     4.2194 </r>
       <r>    10.5047     0.4673     4.2880 </r>
       <r>    10.6515     0.4294     4.3511 </r>
       <r>    10.7983     0.4523     4.4175 </r>
       <r>    10.9452     0.4959     4.4903 </r>
       <r>    11.0920     0.4045     4.5497 </r>
       <r>    11.2389     0.5074     4.6242 </r>
       <r>    11.3857     0.4695     4.6932 </r>
       <r>    11.5325     0.4187     4.7546 </r>
       <r>    11.6794     0.5771     4.8394 </r>
       <r>    11.8262     0.4536     4.9060 </r>
       <r>    11.9730     0.5226     4.9827 </r>
       <r>    12.1199     0.4343     5.0465 </r>
       <r>    12.2667     0.4876     5.1181 </r>
       <r>    12.4136     0.5383     5.1971 </r>
       <r>    12.5604     0.4976     5.2702 </r>
       <r>    12.7072     0.6025     5.3587 </r>
       <r>    12.8541     0.5337     5.4370 </r>
       <r>    13.0009     0.4681     5.5058 </r>
       <r>    13.1477     0.6823     5.6060 </r>
       <r>    13.2946     0.5526     5.6871 </r>
       <r>    13.4414     0.5202     5.7635 </r>
       <r>    13.5883     0.5853     5.8494 </r>
       <r>    13.7351     0.5803     5.9346 </r>
       <r>    13.8819     0.6053     6.0235 </r>
       <r>    14.0288     0.3744     6.0785 </r>
       <r>    14.1756     0.4415     6.1433 </r>
       <r>    14.3225     0.6812     6.2434 </r>
       <r>    14.4693     0.5098     6.3182 </r>
       <r>    14.6161     0.3995     6.3769 </r>
       <r>    14.7630     0.5161     6.4527 </r>
       <r>    14.9098     0.4468     6.5183 </r>
       <r>    15.0566     0.4855     6.5895 </r>
       <r>    15.2035     0.4965     6.6625 </r>
       <r>    15.3503     0.4606     6.7301 </r>
       <r>    15.4972     0.4656     6.7984 </r>
       <r>    15.6440     0.5017     6.8721 </r>
       <r>    15.7908     0.4916     6.9443 </r>
       <r>    15.9377     0.3319     6.9930 </r>
       <r>    16.0845     0.5582     7.0750 </r>
       <r>    16.2313     0.5456     7.1551 </r>
       <r>    16.3782     0.4911     7.2272 </r>
       <r>    16.5250     0.4489     7.2931 </r>
       <r>    16.6719     0.4359     7.3571 </r>
       <r>    16.8187     0.5135     7.4325 </r>
       <r>    16.9655     0.5372     7.5114 </r>
       <r>    17.1124     0.5693     7.5950 </r>
       <r>    17.2592     0.4448     7.6603 </r>
       <r>    17.4061     0.5387     7.7394 </r>
       <r>    17.5529     0.4517     7.8058 </r>
       <r>    17.6997     0.7118     7.9103 </r>
       <r>    17.8466     0.4828     7.9812 </r>
       <r>    17.9934     0.4716     8.0504 </r>
       <r>    18.1402     0.5149     8.1260 </r>
       <r>    18.2871     0.6561     8.2224 </r>
       <r>    18.4339     0.4636     8.2904 </r>
       <r>    18.5808     0.5271     8.3678 </r>
       <r>    18.7276     0.4978     8.4409 </r>
       <r>    18.8744     0.6211     8.5321 </r>
       <r>    19.0213     0.6117     8.6220 </r>
       <r>    19.1681     0.5192     8.6982 </r>
       <r>    19.3150     0.4213     8.7600 </r>
       <r>    19.4618     0.6819     8.8602 </r>
       <r>    19.6086     0.5009     8.9337 </r>
       <r>    19.7555     0.4966     9.0066 </r>
       <r>    19.9023     0.4505     9.0728 </r>
       <r>    20.0491     0.7455     9.1823 </r>
       <r>    20.1960     0.6107     9.2719 </r>
       <r>    20.3428     0.6260     9.3639 </r>
       <r>    20.4897     0.5528     9.4450 </r>
       <r>    20.6365     0.7213     9.5510 </r>
       <r>    20.7833     0.5694     9.6346 </r>
       <r>    20.9302     0.5929     9.7216 </r>
       <r>    21.0770     0.5417     9.8012 </r>
       <r>    21.2238     0.5321     9.8793 </r>
       <r>    21.3707     0.7168     9.9846 </r>
       <r>    21.5175     0.5977    10.0723 </r>
       <r>    21.6644     0.5643    10.1552 </r>
       <r>    21.8112     0.5848    10.2411 </r>
       <r>    21.9580     0.4470    10.3067 </r>
       <r>    22.1049     0.6803    10.4066 </r>
       <r>    22.2517     0.6117    10.4964 </r>
       <r>    22.3986     0.5531    10.5776 </r>
       <r>    22.5454     0.4985    10.6508 </r>
       <r>    22.6922     0.5320    10.7289 </r>
       <r>    22.8391     0.6756    10.8281 </r>
       <r>    22.9859     0.8159    10.9479 </r>
       <r>    23.1327     0.8396    11.0712 </r>
       <r>    23.2796     0.7150    11.1762 </r>
       <r>    23.4264     0.5462    11.2564 </r>
       <r>    23.5733     0.6691    11.3546 </r>
       <r>    23.7201     0.6007    11.4428 </r>
       <r>    23.8669     0.6343    11.5360 </r>
       <r>    24.0138     0.7545    11.6468 </r>
       <r>    24.1606     0.6587    11.7435 </r>
       <r>    24.3074     0.7349    11.8514 </r>
       <r>    24.4543     0.5136    11.9268 </r>
       <r>    24.6011     0.6909    12.0283 </r>
       <r>    24.7480     0.4610    12.0960 </r>
       <r>    24.8948     0.7509    12.2062 </r>
       <r>    25.0416     0.6259    12.2981 </r>
       <r>    25.1885     0.5376    12.3771 </r>
       <r>    25.3353     0.9131    12.5111 </r>
       <r>    25.4822     0.8275    12.6326 </r>
       <r>    25.6290     0.6626    12.7299 </r>
       <r>    25.7758     0.5298    12.8077 </r>
       <r>    25.9227     0.4973    12.8808 </r>
       <r>    26.0695     0.7041    12.9841 </r>
       <r>    26.2163     0.6150    13.0745 </r>
       <r>    26.3632     0.7768    13.1885 </r>
       <r>    26.5100     0.6833    13.2889 </r>
       <r>    26.6569     0.4975    13.3619 </r>
       <r>    26.8037     0.5112    13.4370 </r>
       <r>    26.9505     0.5709    13.5208 </r>
       <r>    27.0974     0.6034    13.6094 </r>
       <r>    27.2442     0.7773    13.7235 </r>
       <r>    27.3911     0.4840    13.7946 </r>
       <r>    27.5379     0.4632    13.8626 </r>
       <r>    27.6847     0.5278    13.9401 </r>
       <r>    27.8316     0.6832    14.0405 </r>
       <r>    27.9784     0.5559    14.1221 </r>
       <r>    28.1252     0.5754    14.2066 </r>
       <r>    28.2721     0.4378    14.2709 </r>
       <r>    28.4189     0.4724    14.3402 </r>
       <r>    28.5658     0.4288    14.4032 </r>
       <r>    28.7126     0.4350    14.4671 </r>
       <r>    28.8594     0.6479    14.5622 </r>
       <r>    29.0063     0.6332    14.6552 </r>
       <r>    29.1531     0.5967    14.7428 </r>
       <r>    29.2999     0.4422    14.8077 </r>
       <r>    29.4468     0.4961    14.8806 </r>
       <r>    29.5936     0.5717    14.9645 </r>
       <r>    29.7405     0.4914    15.0367 </r>
       <r>    29.8873     0.5295    15.1144 </r>
       <r>    30.0341     0.4097    15.1746 </r>
       <r>    30.1810     0.3946    15.2325 </r>
       <r>    30.3278     0.3436    15.2830 </r>
       <r>    30.4747     0.3309    15.3316 </r>
       <r>    30.6215     0.2956    15.3750 </r>
       <r>    30.7683     0.3130    15.4209 </r>
       <r>    30.9152     0.2634    15.4596 </r>
       <r>    31.0620     0.2272    15.4930 </r>
       <r>    31.2088     0.2984    15.5368 </r>
       <r>    31.3557     0.2213    15.5693 </r>
       <r>    31.5025     0.1727    15.5946 </r>
       <r>    31.6494     0.2614    15.6330 </r>
       <r>    31.7962     0.2010    15.6625 </r>
       <r>    31.9430     0.1357    15.6825 </r>
       <r>    32.0899     0.2020    15.7121 </r>
       <r>    32.2367     0.1843    15.7392 </r>
       <r>    32.3835     0.1980    15.7682 </r>
       <r>    32.5304     0.1540    15.7908 </r>
       <r>    32.6772     0.1537    15.8134 </r>
       <r>    32.8241     0.0992    15.8280 </r>
       <r>    32.9709     0.0995    15.8426 </r>
       <r>    33.1177     0.1459    15.8640 </r>
       <r>    33.2646     0.1584    15.8873 </r>
       <r>    33.4114     0.1262    15.9058 </r>
       <r>    33.5583     0.0846    15.9182 </r>
       <r>    33.7051     0.0446    15.9248 </r>
       <r>    33.8519     0.0813    15.9367 </r>
       <r>    33.9988     0.0894    15.9499 </r>
       <r>    34.1456     0.0805    15.9617 </r>
       <r>    34.2924     0.0432    15.9680 </r>
       <r>    34.4393     0.0404    15.9740 </r>
       <r>    34.5861     0.0354    15.9792 </r>
       <r>    34.7330     0.0432    15.9855 </r>
       <r>    34.8798     0.0155    15.9878 </r>
       <r>    35.0266     0.0198    15.9907 </r>
       <r>    35.1735     0.0403    15.9966 </r>
       <r>    35.3203     0.0026    15.9970 </r>
       <r>    35.4672     0.0081    15.9982 </r>
       <r>    35.6140     0.0107    15.9997 </r>
       <r>    35.7608     0.0017    16.0000 </r>
       <r>    35.9077     0.0000    16.0000 </r>
       <r>    36.0545     0.0000    16.0000 </r>
       <r>    36.2013     0.0000    16.0000 </r>
       <r>    36.3482     0.0000    16.0000 </r>
       <r>    36.4950     0.0000    16.0000 </r>
       <r>    36.6419     0.0000    16.0000 </r>
       <r>    36.7887     0.0000    16.0000 </r>
       <r>    36.9355     0.0000    16.0000 </r>
       <r>    37.0824     0.0000    16.0000 </r>
       <r>    37.2292     0.0000    16.0000 </r>
       <r>    37.3760     0.0000    16.0000 </r>
       <r>    37.5229     0.0000    16.0000 </r>
       <r>    37.6697     0.0000    16.0000 </r>
      </set>
     </set>
    </array>
   </total>
  </dos>
 </calculation>
 <structure name="finalpos" >
  <crystal>
   <varray name="basis" >
    <v>       1.95000000       1.95000000       0.00000000 </v>
    <v>       0.00000000       1.95000000       1.95000000 </v>
    <v>       1.95000000       0.00000000       1.95000000 </v>
   </varray>
   <i name="volume">     14.82975000 </i>
   <varray name="rec_basis" >
    <v>       0.25641026       0.25641026      -0.25641026 </v>
    <v>      -0.25641026       0.25641026       0.25641026 </v>
    <v>       0.25641026      -0.25641026       0.25641026 </v>
   </varray>
  </crystal>
  <varray name="positions" >
   <v>       0.00000000       0.00000000       0.00000000 </v>
  </varray>
 </structure>
</modeling>
