Silicon DFT Groundstate Calculation     
   5.43000000000000     
     0.500000    0.500000    0.000000
     0.000000    0.500000    0.500000
     0.500000    0.000000    0.500000
   Si
     2
Direct
  0.000000  0.000000  0.000000
  0.250000  0.250000  0.250000
 
   48   48   48
 -.77179     -.24801      1.2429      3.4791      6.1480      8.9118      11.467      13.583      15.117      16.005    
  16.260      15.951      15.195      14.144      12.965      11.799      10.719      9.7583      8.9341      8.2478    
  7.6941      7.2669      6.9622      6.7790      6.7178      6.7790      6.9622      7.2669      7.6941      8.2478    
  8.9341      9.7583      10.719      11.799      12.965      14.144      15.195      15.951      16.260      16.005    
  15.117      13.583      11.467      8.9118      6.1480      3.4791      1.2429     -.24801     -.24801     0.82084    
  2.7934      5.3792      8.2289      11.003      13.424      15.304      16.544      17.124      17.090      16.540    
  15.614      14.476      13.285      12.149      11.114      10.207      9.4353      8.7982      8.2911      7.9102    
  7.6549      7.5265      7.5265      7.6549      7.9102      8.2911      8.7982      9.4353      10.207      11.114    
  12.149      13.285      14.476      15.614      16.540      17.090      17.124      16.544      15.304      13.424    
  11.003      8.2289      5.3792      2.7933     0.82084     -.24801      1.2429      2.7934      5.1102      7.8611    
  10.691      13.289      15.422      16.952      17.826      18.062      17.737      16.972      15.921      14.748    
  13.588      12.505      11.533      10.689      9.9761      9.3922      8.9350      8.6050      8.4048      8.3376    
  8.4048      8.6050      8.9350      9.3922      9.9761      10.689      11.533      12.505      13.588      14.748    
  15.921      16.972      17.737      18.062      17.826      16.952      15.422      13.289      10.691      7.8611    
  5.1102      2.7934      1.2429     0.69723      3.4791      5.3792      7.8611      10.582      13.212      15.487    
  17.228      18.347      18.833      18.735      18.155      17.231      16.122      14.975      13.877      12.868    
  11.971      11.196      10.544      10.015      9.6101      9.3352      9.1958      9.1958      9.3352      9.6101    
  10.015      10.544      11.196      11.971      12.868      13.877      14.975      16.122      17.231      18.155    
  18.735      18.833      18.347      17.228      15.487      13.212      10.582      7.8610      5.3792      3.4791    
  2.4472      2.4472      6.1480      8.2289      10.691      13.212      15.507      17.367      18.669      19.368    
  19.487      19.105      18.339      17.335      16.243      15.167      14.154      13.233      12.416      11.711    
  11.118      10.644      10.294      10.079      10.006      10.079      10.294      10.644      11.118      11.711    
  12.416      13.233      14.154      15.167      16.243      17.335      18.339      19.105      19.487      19.368    
  18.669      17.367      15.507      13.212      10.691      8.2289      6.1480      4.7525      4.2608      4.7525    
  8.9118      11.003      13.289      15.487      17.367      18.778      19.643      19.956      19.770      19.181    
  18.318      17.322      16.308      15.329      14.416      13.587      12.849      12.209      11.673      11.252    
  10.960      10.810      10.810      10.960      11.252      11.673      12.209      12.849      13.587      14.416    
  15.329      16.308      17.322      18.318      19.181      19.770      19.956      19.643      18.778      17.367    
  15.487      13.289      11.003      8.9118      7.3083      6.4368      6.4368      7.3083      11.467      13.424    
  15.422      17.228      18.669      19.643      20.116      20.113      19.708      19.011      18.148      17.235    
  16.329      15.461      14.651      13.910      13.244      12.662      12.176      11.806      11.573      11.493    
  11.573      11.806      12.176      12.662      13.244      13.910      14.651      15.461      16.329      17.235    
  18.148      19.011      19.708      20.113      20.116      19.643      18.669      17.228      15.422      13.424    
  11.467      9.8116      8.7013      8.3101      8.7013      9.8116      13.583      15.304      16.952      18.347    
  19.368      19.956      20.113      19.887      19.369      18.667      17.889      17.093      16.308      15.554    
  14.841      14.176      13.566      13.026      12.581      12.262      12.094      12.094      12.262      12.581    
  13.026      13.566      14.176      14.841      15.554      16.308      17.093      17.889      18.667      19.369    
  19.887      20.113      19.956      19.368      18.347      16.952      15.304      13.583      12.008      10.800    
  10.144      10.144      10.800      12.008      15.117      16.544      17.826      18.833      19.487      19.770    
  19.708      19.369      18.844      18.228      17.573      16.906      16.243      15.593      14.959      14.345    
  13.768      13.258      12.853      12.591      12.501      12.591      12.853      13.258      13.768      14.345    
  14.959      15.593      16.243      16.906      17.573      18.228      18.844      19.369      19.708      19.770    
  19.487      18.833      17.826      16.544      15.117      13.715      12.530      11.736      11.457      11.736    
  12.530      13.715      16.005      17.124      18.062      18.735      19.105      19.181      19.011      18.667    
  18.228      17.737      17.215      16.675      16.122      15.552      14.964      14.375      13.817      13.335    
  12.979      12.789      12.789      12.979      13.335      13.817      14.375      14.964      15.552      16.122    
  16.675      17.215      17.737      18.228      18.667      19.011      19.181      19.105      18.735      18.062    
  17.124      16.005      14.833      13.758      12.935      12.489      12.489      12.935      13.758      14.833    
  16.260      17.090      17.737      18.155      18.339      18.318      18.148      17.889      17.573      17.215    
  16.822      16.394      15.921      15.394      14.825      14.245      13.705      13.261      12.969      12.867    
  12.969      13.261      13.705      14.245      14.825      15.394      15.921      16.394      16.822      17.215    
  17.573      17.889      18.148      18.318      18.339      18.155      17.737      17.090      16.260      15.333    
  14.421      13.651      13.135      12.953      13.135      13.651      14.421      15.333      15.951      16.540    
  16.972      17.231      17.335      17.322      17.235      17.093      16.906      16.675      16.394      16.046    
  15.614      15.101      14.535      13.964      13.452      13.066      12.857      12.857      13.066      13.452    
  13.964      14.535      15.101      15.614      16.046      16.394      16.675      16.906      17.093      17.235    
  17.322      17.335      17.231      16.972      16.540      15.951      15.252      14.521      13.852      13.340    
  13.063      13.063      13.340      13.852      14.521      15.252      15.195      15.614      15.921      16.122    
  16.243      16.308      16.329      16.308      16.243      16.122      15.921      15.614      15.195      14.681    
  14.117      13.568      13.107      12.799      12.691      12.799      13.107      13.568      14.117      14.681    
  15.195      15.614      15.921      16.122      16.243      16.308      16.329      16.308      16.243      16.122    
  15.921      15.614      15.195      14.681      14.117      13.568      13.107      12.799      12.691      12.799    
  13.107      13.568      14.117      14.681      14.144      14.476      14.748      14.975      15.167      15.329    
  15.461      15.554      15.593      15.552      15.394      15.101      14.681      14.168      13.622      13.119    
  12.732      12.522      12.522      12.732      13.119      13.622      14.168      14.681      15.101      15.394    
  15.552      15.593      15.554      15.461      15.329      15.167      14.975      14.748      14.476      14.144    
  13.753      13.319      12.880      12.486      12.188      12.027      12.027      12.188      12.486      12.880    
  13.319      13.753      12.965      13.285      13.588      13.877      14.154      14.416      14.651      14.841    
  14.959      14.964      14.825      14.535      14.117      13.622      13.121      12.690      12.399      12.296    
  12.399      12.690      13.121      13.622      14.117      14.535      14.825      14.964      14.959      14.841    
  14.651      14.416      14.154      13.877      13.588      13.285      12.965      12.625      12.268      11.908    
  11.575      11.303      11.124      11.061      11.124      11.303      11.575      11.908      12.268      12.625    
  11.799      12.149      12.505      12.868      13.233      13.587      13.910      14.176      14.345      14.375    
  14.245      13.964      13.568      13.119      12.690      12.354      12.169      12.169      12.354      12.690    
  13.119      13.568      13.964      14.245      14.375      14.345      14.176      13.910      13.587      13.233    
  12.868      12.505      12.149      11.799      11.455      11.118      10.794      10.498      10.247      10.064    
  9.9670      9.9670      10.064      10.247      10.498      10.794      11.118      11.455      10.719      11.114    
  11.533      11.971      12.416      12.849      13.244      13.566      13.768      13.817      13.705      13.452    
  13.107      12.732      12.399      12.169      12.088      12.169      12.399      12.732      13.107      13.452    
  13.705      13.817      13.768      13.566      13.244      12.849      12.416      11.971      11.533      11.114    
  10.719      10.347      9.9982      9.6756      9.3857      9.1395      8.9505      8.8310      8.7901      8.8310    
  8.9505      9.1395      9.3857      9.6756      9.9982      10.347      9.7583      10.207      10.689      11.196    
  11.711      12.209      12.662      13.026      13.258      13.335      13.261      13.066      12.799      12.522    
  12.296      12.169      12.169      12.296      12.522      12.799      13.066      13.261      13.335      13.258    
  13.026      12.662      12.209      11.711      11.196      10.689      10.207      9.7583      9.3465      8.9717    
  8.6337      8.3351      8.0812      7.8801      7.7400      7.6681      7.6681      7.7400      7.8801      8.0812    
  8.3351      8.6337      8.9717      9.3465      8.9341      9.4353      9.9761      10.544      11.118      11.673    
  12.176      12.581      12.853      12.979      12.969      12.857      12.691      12.522      12.399      12.354    
  12.399      12.522      12.691      12.857      12.969      12.979      12.853      12.581      12.176      11.673    
  11.118      10.544      9.9761      9.4353      8.9341      8.4784      8.0693      7.7064      7.3894      7.1204    
  6.9034      6.7434      6.6452      6.6121      6.6452      6.7434      6.9034      7.1204      7.3894      7.7064    
  8.0693      8.4784      8.2478      8.7982      9.3922      10.015      10.644      11.252      11.806      12.262    
  12.591      12.789      12.867      12.857      12.799      12.732      12.690      12.690      12.732      12.799    
  12.857      12.867      12.789      12.591      12.262      11.806      11.252      10.644      10.015      9.3922    
  8.7982      8.2478      7.7486      7.3032      6.9109      6.5704      6.2815      6.0456      5.8651      5.7429    
  5.6812      5.6812      5.7429      5.8651      6.0456      6.2815      6.5704      6.9109      7.3032      7.7486    
  7.6941      8.2911      8.9350      9.6101      10.294      10.960      11.573      12.094      12.501      12.789    
  12.969      13.066      13.107      13.119      13.121      13.119      13.107      13.066      12.969      12.789    
  12.501      12.094      11.573      10.960      10.294      9.6101      8.9350      8.2911      7.6941      7.1533    
  6.6718      6.2491      5.8831      5.5721      5.3158      5.1146      4.9697      4.8823      4.8531      4.8823    
  4.9697      5.1146      5.3158      5.5721      5.8831      6.2491      6.6718      7.1533      7.2669      7.9102    
  8.6050      9.3352      10.079      10.810      11.493      12.094      12.591      12.979      13.261      13.452    
  13.568      13.622      13.622      13.568      13.452      13.261      12.979      12.591      12.094      11.493    
  10.810      10.079      9.3352      8.6050      7.9102      7.2669      6.6848      6.1673      5.7139      5.3217    
  4.9880      4.7107      4.4890      4.3227      4.2119      4.1565      4.1565      4.2119      4.3227      4.4890    
  4.7107      4.9880      5.3217      5.7139      6.1673      6.6848      6.9622      7.6549      8.4048      9.1958    
  10.006      10.810      11.573      12.262      12.853      13.335      13.705      13.964      14.117      14.168    
  14.117      13.964      13.705      13.335      12.853      12.262      11.573      10.810      10.006      9.1958    
  8.4048      7.6549      6.9622      6.3365      5.7814      5.2958      4.8763      4.5190      4.2205      3.9786    
  3.7919      3.6594      3.5804      3.5541      3.5804      3.6594      3.7919      3.9786      4.2205      4.5190    
  4.8763      5.2958      5.7814      6.3365      6.7790      7.5265      8.3376      9.1958      10.079      10.960    
  11.806      12.581      13.258      13.817      14.245      14.535      14.681      14.681      14.535      14.245    
  13.817      13.258      12.581      11.806      10.960      10.079      9.1958      8.3376      7.5265      6.7790    
  6.1050      5.5081      4.9870      4.5376      4.1548      3.8339      3.5715      3.3648      3.2120      3.1112    
  3.0612      3.0612      3.1112      3.2120      3.3648      3.5715      3.8339      4.1548      4.5376      4.9870    
  5.5081      6.1050      6.7178      7.5265      8.4048      9.3352      10.294      11.252      12.176      13.026    
  13.768      14.375      14.825      15.101      15.195      15.101      14.825      14.375      13.768      13.026    
  12.176      11.252      10.294      9.3352      8.4048      7.5265      6.7178      5.9892      5.3447      4.7828    
  4.2989      3.8871      3.5414      3.2570      3.0298      2.8569      2.7357      2.6639      2.6401      2.6639    
  2.7357      2.8569      3.0298      3.2570      3.5414      3.8871      4.2989      4.7828      5.3447      5.9892    
  6.7790      7.6549      8.6050      9.6101      10.644      11.673      12.662      13.566      14.345      14.964    
  15.394      15.614      15.614      15.394      14.964      14.345      13.566      12.662      11.673      10.644    
  9.6101      8.6050      7.6549      6.7790      5.9892      5.2902      4.6810      4.1567      3.7108      3.3362    
  3.0270      2.7777      2.5842      2.4427      2.3503      2.3047      2.3047      2.3503      2.4427      2.5842    
  2.7777      3.0270      3.3362      3.7108      4.1567      4.6810      5.2902      5.9892      6.9622      7.9102    
  8.9350      10.015      11.118      12.209      13.244      14.176      14.959      15.552      15.921      16.046    
  15.921      15.552      14.959      14.176      13.244      12.209      11.118      10.015      8.9350      7.9102    
  6.9622      6.1050      5.3447      4.6810      4.1094      3.6231      3.2144      2.8762      2.6018      2.3859    
  2.2236      2.1109      2.0446      2.0228      2.0446      2.1109      2.2236      2.3859      2.6018      2.8762    
  3.2144      3.6231      4.1094      4.6810      5.3447      6.1050      7.2669      8.2911      9.3922      10.544    
  11.711      12.849      13.910      14.841      15.593      16.122      16.394      16.394      16.122      15.593    
  14.841      13.910      12.849      11.711      10.544      9.3922      8.2911      7.2669      6.3365      5.5081    
  4.7828      4.1567      3.6231      3.1740      2.8015      2.4979      2.2567      2.0718      1.9381      1.8515    
  1.8089      1.8089      1.8515      1.9381      2.0718      2.2567      2.4979      2.8015      3.1740      3.6231    
  4.1567      4.7828      5.5081      6.3365      7.6941      8.7982      9.9761      11.196      12.416      13.587    
  14.651      15.554      16.243      16.675      16.822      16.675      16.243      15.554      14.651      13.587    
  12.416      11.196      9.9761      8.7982      7.6941      6.6848      5.7814      4.9870      4.2989      3.7108    
  3.2144      2.8015      2.4636      2.1930      1.9826      1.8263      1.7187      1.6558      1.6351      1.6558    
  1.7187      1.8263      1.9826      2.1930      2.4636      2.8015      3.2144      3.7108      4.2989      4.9870    
  5.7814      6.6848      8.2478      9.4353      10.689      11.971      13.233      14.416      15.461      16.308    
  16.906      17.215      17.215      16.906      16.308      15.461      14.416      13.233      11.971      10.689    
  9.4353      8.2478      7.1533      6.1673      5.2958      4.5376      3.8871      3.3362      2.8762      2.4979    
  2.1930      1.9532      1.7714      1.6411      1.5573      1.5163      1.5163      1.5573      1.6411      1.7714    
  1.9532      2.1930      2.4979      2.8762      3.3362      3.8871      4.5376      5.2958      6.1673      7.1533    
  8.9341      10.207      11.533      12.868      14.154      15.329      16.329      17.093      17.573      17.737    
  17.573      17.093      16.329      15.329      14.154      12.868      11.533      10.207      8.9341      7.7486    
  6.6718      5.7139      4.8763      4.1548      3.5414      3.0270      2.6018      2.2567      1.9826      1.7714    
  1.6157      1.5092      1.4472      1.4269      1.4472      1.5092      1.6157      1.7714      1.9826      2.2567    
  2.6018      3.0270      3.5414      4.1548      4.8763      5.7139      6.6718      7.7486      9.7583      11.114    
  12.505      13.877      15.167      16.308      17.235      17.889      18.228      18.228      17.889      17.235    
  16.308      15.167      13.877      12.505      11.114      9.7583      8.4784      7.3032      6.2491      5.3217    
  4.5190      3.8339      3.2570      2.7777      2.3859      2.0718      1.8263      1.6411      1.5092      1.4246    
  1.3834      1.3834      1.4246      1.5092      1.6411      1.8263      2.0718      2.3859      2.7777      3.2570    
  3.8339      4.5190      5.3217      6.2491      7.3032      8.4784      10.719      12.149      13.588      14.975    
  16.243      17.322      18.148      18.667      18.844      18.667      18.148      17.322      16.243      14.975    
  13.588      12.149      10.719      9.3465      8.0693      6.9109      5.8831      4.9880      4.2205      3.5715    
  3.0298      2.5842      2.2236      1.9381      1.7187      1.5573      1.4472      1.3834      1.3625      1.3834    
  1.4472      1.5573      1.7187      1.9381      2.2236      2.5842      3.0298      3.5715      4.2205      4.9880    
  5.8831      6.9109      8.0693      9.3465      11.799      13.285      14.748      16.122      17.335      18.318    
  19.011      19.369      19.369      19.011      18.318      17.335      16.122      14.748      13.285      11.799    
  10.347      8.9717      7.7064      6.5704      5.5721      4.7107      3.9786      3.3648      2.8569      2.4427    
  2.1109      1.8515      1.6558      1.5163      1.4269      1.3834      1.3834      1.4269      1.5163      1.6558    
  1.8515      2.1109      2.4427      2.8569      3.3648      3.9786      4.7107      5.5721      6.5704      7.7064    
  8.9717      10.347      12.965      14.476      15.921      17.231      18.339      19.181      19.708      19.887    
  19.708      19.181      18.339      17.231      15.921      14.476      12.965      11.455      9.9982      8.6337    
  7.3894      6.2815      5.3158      4.4890      3.7919      3.2120      2.7357      2.3503      2.0446      1.8089    
  1.6351      1.5163      1.4472      1.4246      1.4472      1.5163      1.6351      1.8089      2.0446      2.3503    
  2.7357      3.2120      3.7919      4.4890      5.3158      6.2815      7.3894      8.6337      9.9982      11.455    
  14.144      15.614      16.972      18.155      19.105      19.770      20.113      20.113      19.770      19.105    
  18.155      16.972      15.614      14.144      12.625      11.118      9.6756      8.3351      7.1204      6.0456    
  5.1146      4.3227      3.6594      3.1112      2.6639      2.3047      2.0228      1.8089      1.6558      1.5573    
  1.5092      1.5092      1.5573      1.6558      1.8089      2.0228      2.3047      2.6639      3.1112      3.6594    
  4.3227      5.1146      6.0456      7.1204      8.3351      9.6756      11.118      12.625      15.195      16.540    
  17.737      18.735      19.487      19.956      20.116      19.956      19.487      18.735      17.737      16.540    
  15.195      13.753      12.268      10.794      9.3857      8.0812      6.9034      5.8651      4.9697      4.2119    
  3.5804      3.0612      2.6401      2.3047      2.0446      1.8515      1.7187      1.6411      1.6157      1.6411    
  1.7187      1.8515      2.0446      2.3047      2.6401      3.0612      3.5804      4.2119      4.9697      5.8651    
  6.9034      8.0812      9.3857      10.794      12.268      13.753      15.951      17.090      18.062      18.833    
  19.368      19.643      19.643      19.368      18.833      18.062      17.090      15.951      14.681      13.319    
  11.908      10.498      9.1395      7.8801      6.7434      5.7429      4.8823      4.1565      3.5541      3.0612    
  2.6639      2.3503      2.1109      1.9381      1.8263      1.7714      1.7714      1.8263      1.9381      2.1109    
  2.3503      2.6639      3.0612      3.5541      4.1565      4.8823      5.7429      6.7434      7.8801      9.1395    
  10.498      11.908      13.319      14.681      16.260      17.124      17.826      18.347      18.669      18.778    
  18.669      18.347      17.826      17.124      16.260      15.252      14.117      12.880      11.575      10.247    
  8.9505      7.7400      6.6452      5.6812      4.8531      4.1565      3.5804      3.1112      2.7357      2.4427    
  2.2236      2.0718      1.9826      1.9532      1.9826      2.0718      2.2236      2.4427      2.7357      3.1112    
  3.5804      4.1565      4.8531      5.6812      6.6452      7.7400      8.9505      10.247      11.575      12.880    
  14.117      15.252      16.005      16.544      16.952      17.228      17.367      17.367      17.228      16.952    
  16.544      16.005      15.333      14.521      13.568      12.486      11.303      10.064      8.8310      7.6681    
  6.6121      5.6812      4.8823      4.2119      3.6594      3.2120      2.8569      2.5842      2.3859      2.2567    
  2.1930      2.1930      2.2567      2.3859      2.5842      2.8569      3.2120      3.6594      4.2119      4.8823    
  5.6812      6.6121      7.6681      8.8310      10.064      11.303      12.486      13.568      14.521      15.333    
  15.117      15.304      15.422      15.487      15.507      15.487      15.422      15.304      15.117      14.833    
  14.421      13.852      13.107      12.188      11.124      9.9670      8.7901      7.6681      6.6452      5.7429    
  4.9697      4.3227      3.7919      3.3648      3.0298      2.7777      2.6018      2.4979      2.4636      2.4979    
  2.6018      2.7777      3.0298      3.3648      3.7919      4.3227      4.9697      5.7429      6.6452      7.6681    
  8.7901      9.9670      11.124      12.188      13.107      13.852      14.421      14.833      13.583      13.424    
  13.289      13.212      13.212      13.289      13.424      13.583      13.715      13.758      13.651      13.340    
  12.799      12.027      11.061      9.9670      8.8310      7.7400      6.7434      5.8651      5.1146      4.4890    
  3.9786      3.5715      3.2570      3.0270      2.8762      2.8015      2.8015      2.8762      3.0270      3.2570    
  3.5715      3.9786      4.4890      5.1146      5.8651      6.7434      7.7400      8.8310      9.9670      11.061    
  12.027      12.799      13.340      13.651      13.758      13.715      11.467      11.003      10.691      10.582    
  10.691      11.003      11.467      12.008      12.530      12.935      13.135      13.063      12.691      12.027    
  11.124      10.064      8.9505      7.8801      6.9034      6.0456      5.3158      4.7107      4.2205      3.8339    
  3.5414      3.3362      3.2144      3.1740      3.2144      3.3362      3.5414      3.8339      4.2205      4.7107    
  5.3158      6.0456      6.9034      7.8801      8.9505      10.064      11.124      12.027      12.691      13.063    
  13.135      12.935      12.530      12.008      8.9118      8.2289      7.8611      7.8610      8.2289      8.9118    
  9.8116      10.800      11.736      12.489      12.953      13.063      12.799      12.188      11.303      10.247    
  9.1395      8.0812      7.1204      6.2815      5.5721      4.9880      4.5190      4.1548      3.8871      3.7108    
  3.6231      3.6231      3.7108      3.8871      4.1548      4.5190      4.9880      5.5721      6.2815      7.1204    
  8.0812      9.1395      10.247      11.303      12.188      12.799      13.063      12.953      12.489      11.736    
  10.800      9.8116      6.1480      5.3792      5.1102      5.3792      6.1480      7.3083      8.7013      10.144    
  11.457      12.489      13.135      13.340      13.107      12.486      11.575      10.498      9.3857      8.3351    
  7.3894      6.5704      5.8831      5.3217      4.8763      4.5376      4.2989      4.1567      4.1094      4.1567    
  4.2989      4.5376      4.8763      5.3217      5.8831      6.5704      7.3894      8.3351      9.3857      10.498    
  11.575      12.486      13.107      13.340      13.135      12.489      11.457      10.144      8.7013      7.3083    
  3.4791      2.7933      2.7934      3.4791      4.7525      6.4368      8.3101      10.144      11.736      12.935    
  13.651      13.852      13.568      12.880      11.908      10.794      9.6756      8.6337      7.7064      6.9109    
  6.2491      5.7139      5.2958      4.9870      4.7828      4.6810      4.6810      4.7828      4.9870      5.2958    
  5.7139      6.2491      6.9109      7.7064      8.6337      9.6756      10.794      11.908      12.880      13.568    
  13.852      13.651      12.935      11.736      10.144      8.3101      6.4368      4.7525      1.2429     0.82084    
  1.2429      2.4472      4.2608      6.4368      8.7013      10.800      12.530      13.758      14.421      14.521    
  14.117      13.319      12.268      11.118      9.9982      8.9717      8.0693      7.3032      6.6718      6.1673    
  5.7814      5.5081      5.3447      5.2902      5.3447      5.5081      5.7814      6.1673      6.6718      7.3032    
  8.0693      8.9717      9.9982      11.118      12.268      13.319      14.117      14.521      14.421      13.758    
  12.530      10.800      8.7013      6.4368      4.2608      2.4472     -.24801     -.24801     0.69723      2.4472    
  4.7525      7.3083      9.8116      12.008      13.715      14.833      15.333      15.252      14.681      13.753    
  12.625      11.455      10.347      9.3465      8.4784      7.7486      7.1533      6.6848      6.3365      6.1050    
  5.9892      5.9892      6.1050      6.3365      6.6848      7.1533      7.7486      8.4784      9.3465      10.347    
  11.455      12.625      13.753      14.681      15.252      15.333      14.833      13.715      12.008      9.8116    
  7.3083      4.7525      2.4472     0.69724     -.24801     0.82084      2.7934      5.3792      8.2289      11.003    
  13.424      15.304      16.544      17.124      17.090      16.540      15.614      14.476      13.285      12.149    
  11.114      10.207      9.4353      8.7982      8.2911      7.9102      7.6549      7.5265      7.5265      7.6549    
  7.9102      8.2911      8.7982      9.4353      10.207      11.114      12.149      13.285      14.476      15.614    
  16.540      17.090      17.124      16.544      15.304      13.424      11.003      8.2289      5.3792      2.7933    
 0.82084     -.24801     0.82084      2.4152      4.7972      7.6247      10.534      13.204      15.400      16.982    
  17.895      18.160      17.852      17.096      16.046      14.868      13.701      12.610      11.630      10.778    
  10.059      9.4692      9.0078      8.6747      8.4726      8.4048      8.4726      8.6747      9.0078      9.4692    
  10.059      10.778      11.630      12.610      13.701      14.868      16.046      17.096      17.852      18.160    
  17.895      16.982      15.400      13.204      10.534      7.6247      4.7971      2.4151     0.82083     0.25962    
  2.7934      4.7972      7.4132      10.280      13.052      15.452      17.297      18.498      19.044      18.986    
  18.428      17.511      16.394      15.232      14.117      13.091      12.178      11.387      10.722      10.182    
  9.7697      9.4892      9.3469      9.3469      9.4892      9.7697      10.182      10.722      11.387      12.178    
  13.091      14.117      15.232      16.394      17.511      18.428      18.986      19.044      18.498      17.297    
  15.452      13.052      10.280      7.4132      4.7972      2.7934      1.7047      1.7047      5.3792      7.6247    