Silicon DFT Groundstate Calculation     
   5.43000000000000     
     0.500000    0.500000    0.000000
     0.000000    0.500000    0.500000
     0.500000    0.000000    0.500000
   Si
     2
Direct
  0.000000  0.000000  0.000000
  0.250000  0.250000  0.250000
 
   48   48   48
 -.77178861964E+00 -.24801069555E+00 0.12429323218E+01 0.34791000489E+01 0.61479682117E+01
 0.89118248935E+01 0.11467184630E+02 0.13583375843E+02 0.15116518991E+02 0.16005453539E+02
 0.16260250547E+02 0.15950616586E+02 0.15194708298E+02 0.14144492205E+02 0.12964919604E+02
 0.11799326422E+02 0.10718676377E+02 0.97582935090E+01 0.89340661723E+01 0.82477650762E+01
 0.76941315280E+01 0.72669123071E+01 0.69622120940E+01 0.67790024133E+01 0.67177966116E+01
 0.67790023070E+01 0.69622120649E+01 0.72669124037E+01 0.76941315772E+01 0.82477649788E+01
 0.89340660704E+01 0.97582935443E+01 0.10718676459E+02 0.11799326400E+02 0.12964919529E+02
 0.14144492239E+02 0.15194708424E+02 0.15950616637E+02 0.16260250476E+02 0.16005453481E+02
 0.15116519012E+02 0.13583375830E+02 0.11467184508E+02 0.89118247889E+01 0.61479682761E+01
 0.34791002324E+01 0.12429324579E+01 -.24801065870E+00 -.24801069555E+00 0.82084025354E+00
 0.27933519150E+01 0.53792389003E+01 0.82289439173E+01 0.11002950053E+02 0.13424279243E+02
 0.15304226638E+02 0.16544155410E+02 0.17124267005E+02 0.17089991993E+02 0.16540155610E+02
 0.15614392322E+02 0.14475525220E+02 0.13284954914E+02 0.12148909236E+02 0.11114406261E+02
 0.10206888024E+02 0.94352590553E+01 0.87982429433E+01 0.82910737101E+01 0.79101803584E+01
 0.76548771347E+01 0.75265144083E+01 0.75265132619E+01 0.76548756881E+01 0.79101811293E+01
 0.82910753708E+01 0.87982426229E+01 0.94352573101E+01 0.10206887857E+02 0.11114407918E+02
 0.12148909808E+02 0.13284953392E+02 0.14475524211E+02 0.15614393501E+02 0.16540156850E+02
 0.17089991087E+02 0.17124265428E+02 0.16544155683E+02 0.15304228132E+02 0.13424279767E+02
 0.11002950022E+02 0.82289451990E+01 0.53792402585E+01 0.27933498697E+01 0.82083516064E+00
 -.24801351527E+00 0.12429323218E+01 0.27933519150E+01 0.51102277866E+01 0.78610500747E+01
 0.10691397429E+02 0.13288774308E+02 0.15421818895E+02 0.16951970818E+02 0.17826109012E+02
 0.18062367260E+02 0.17736921140E+02 0.16972004298E+02 0.15920964050E+02 0.14747527199E+02
 0.13587728484E+02 0.12505119306E+02 0.11533482248E+02 0.10689185363E+02 0.99760916701E+01
 0.93921579521E+01 0.89350485875E+01 0.86050238553E+01 0.84048264423E+01 0.83376361209E+01
 0.84048265235E+01 0.86050238927E+01 0.89350485479E+01 0.93921579468E+01 0.99760917478E+01
 0.10689185404E+02 0.11533482160E+02 0.12505119193E+02 0.13587728495E+02 0.14747527294E+02
 0.15920964080E+02 0.16972004251E+02 0.17736921139E+02 0.18062367318E+02 0.17826108999E+02
 0.16951970705E+02 0.15421818853E+02 0.13288774451E+02 0.10691397609E+02 0.78610500732E+01
 0.51102276102E+01 0.27933517438E+01 0.12429322516E+01 0.69722993691E+00 0.34791000489E+01
 0.53792389003E+01 0.78610500747E+01 0.10581881928E+02 0.13212152191E+02 0.15486514547E+02
 0.17227743152E+02 0.18347112586E+02 0.18832550481E+02 0.18734776446E+02 0.18154979773E+02
 0.17231467175E+02 0.16121575580E+02 0.14974857645E+02 0.13876893535E+02 0.12868017120E+02
 0.11971277332E+02 0.11196034669E+02 0.10543862204E+02 0.10014566034E+02 0.96100814542E+01
 0.93352296683E+01 0.91958366207E+01 0.91958373413E+01 0.93352305818E+01 0.96100809867E+01
 0.10014565023E+02 0.10543862441E+02 0.11196035772E+02 0.11971277394E+02 0.12868016008E+02
 0.13876893129E+02 0.14974858614E+02 0.16121576278E+02 0.17231466518E+02 0.18154979073E+02
 0.18734777050E+02 0.18832551411E+02 0.18347112259E+02 0.17227742059E+02 0.15486514165E+02
 0.13212152251E+02 0.10581881181E+02 0.78610492926E+01 0.53792403260E+01 0.34791034340E+01
 0.24471669026E+01 0.24471650405E+01 0.61479682117E+01 0.82289439173E+01 0.10691397429E+02
 0.13212152191E+02 0.15507208423E+02 0.17367366220E+02 0.18669025048E+02 0.19368072680E+02
 0.19487436397E+02 0.19104560589E+02 0.18338729278E+02 0.17335029513E+02 0.16242840976E+02
 0.15167074315E+02 0.14154311032E+02 0.13232606394E+02 0.12416251129E+02 0.11710661655E+02
 0.11118360766E+02 0.10643596435E+02 0.10293962546E+02 0.10078869298E+02 0.10006155889E+02
 0.10078869250E+02 0.10293962542E+02 0.10643596495E+02 0.11118360797E+02 0.11710661603E+02
 0.12416251069E+02 0.13232606401E+02 0.14154311062E+02 0.15167074298E+02 0.16242840943E+02
 0.17335029542E+02 0.18338729353E+02 0.19104560623E+02 0.19487436369E+02 0.19368072655E+02
 0.18669025051E+02 0.17367366195E+02 0.15507208344E+02 0.13212152130E+02 0.10691397464E+02
 0.82289440173E+01 0.61479682899E+01 0.47524984648E+01 0.42608368996E+01 0.47524984390E+01
 0.89118248935E+01 0.11002950053E+02 0.13288774308E+02 0.15486514547E+02 0.17367366220E+02
 0.18778054459E+02 0.19643088592E+02 0.19956392620E+02 0.19769809939E+02 0.19180871049E+02
 0.18318125434E+02 0.17322225664E+02 0.16308422666E+02 0.15329466553E+02 0.14416217795E+02
 0.13586516674E+02 0.12849051385E+02 0.12209022109E+02 0.11673226850E+02 0.11252434650E+02
 0.10960249013E+02 0.10809995425E+02 0.10809995092E+02 0.10960248608E+02 0.11252434915E+02
 0.11673227368E+02 0.12209022004E+02 0.12849050827E+02 0.13586516593E+02 0.14416218287E+02
 0.15329466732E+02 0.16308422195E+02 0.17322225324E+02 0.18318125759E+02 0.19180871402E+02
 0.19769809638E+02 0.19956392164E+02 0.19643088881E+02 0.18778055310E+02 0.17367366649E+02
 0.15486514272E+02 0.13288773957E+02 0.11002949910E+02 0.89118244899E+01 0.73083034264E+01
 0.64367869514E+01 0.64367873936E+01 0.73083042202E+01 0.11467184630E+02 0.13424279243E+02
 0.15421818895E+02 0.17227743152E+02 0.18669025048E+02 0.19643088592E+02 0.20115764504E+02
 0.20112666853E+02 0.19707984290E+02 0.19010847031E+02 0.18148081935E+02 0.17235056157E+02
 0.16329009394E+02 0.15461277606E+02 0.14651325524E+02 0.13909804885E+02 0.13243817863E+02
 0.12661597885E+02 0.12175882108E+02 0.11805965288E+02 0.11572984479E+02 0.11493279228E+02
 0.11572984492E+02 0.11805965315E+02 0.12175882147E+02 0.12661597923E+02 0.13243817875E+02
 0.13909804860E+02 0.14651325479E+02 0.15461277577E+02 0.16329009396E+02 0.17235056165E+02
 0.18148081925E+02 0.19010847021E+02 0.19707984315E+02 0.20112666900E+02 0.20115764515E+02
 0.19643088551E+02 0.18669025020E+02 0.17227743198E+02 0.15421818981E+02 0.13424279269E+02
 0.11467184549E+02 0.98116428477E+01 0.87012638189E+01 0.83100616800E+01 0.87012639176E+01
 0.98116429840E+01 0.13583375843E+02 0.15304226638E+02 0.16951970818E+02 0.18347112586E+02
 0.19368072680E+02 0.19956392620E+02 0.20112666853E+02 0.19887471874E+02 0.19368963483E+02
 0.18667059228E+02 0.17889199055E+02 0.17093083333E+02 0.16308422662E+02 0.15554192076E+02
 0.14841206289E+02 0.14176302641E+02 0.13565988316E+02 0.13025729063E+02 0.12580946481E+02
 0.12261569960E+02 0.12094113735E+02 0.12094113822E+02 0.12261570068E+02 0.12580946421E+02
 0.13025728945E+02 0.13565988362E+02 0.14176302789E+02 0.14841206282E+02 0.15554191913E+02
 0.16308422632E+02 0.17093083531E+02 0.17889199195E+02 0.18667059117E+02 0.19368963378E+02
 0.19887472046E+02 0.20112666999E+02 0.19956392178E+02 0.19368071779E+02 0.18347112214E+02
 0.16951971715E+02 0.15304228210E+02 0.13583376584E+02 0.12007637392E+02 0.10799770231E+02
 0.10143678500E+02 0.10143679371E+02 0.10799771981E+02 0.12007638310E+02 0.15116518991E+02
 0.16544155410E+02 0.17826109012E+02 0.18832550481E+02 0.19487436397E+02 0.19769809939E+02
 0.19707984290E+02 0.19368963483E+02 0.18844109324E+02 0.18227784478E+02 0.17572917604E+02
 0.16905769061E+02 0.16242840976E+02 0.15593108673E+02 0.14959405146E+02 0.14345468526E+02
 0.13768139625E+02 0.13257772009E+02 0.12852904303E+02 0.12591399122E+02 0.12500864429E+02
 0.12591399126E+02 0.12852904298E+02 0.13257771994E+02 0.13768139610E+02 0.14345468511E+02
 0.14959405122E+02 0.15593108651E+02 0.16242840995E+02 0.16905769130E+02 0.17572917664E+02
 0.18227784455E+02 0.18844109236E+02 0.19368963433E+02 0.19707984335E+02 0.19769810015E+02
 0.19487436407E+02 0.18832550419E+02 0.17826108955E+02 0.16544155409E+02 0.15116519030E+02
 0.13715119797E+02 0.12530074846E+02 0.11736067154E+02 0.11456530696E+02 0.11736067136E+02
 0.12530074815E+02 0.13715119756E+02 0.16005453539E+02 0.17124267005E+02 0.18062367260E+02
 0.18734776446E+02 0.19104560589E+02 0.19180871049E+02 0.19010847031E+02 0.18667059228E+02
 0.18227784478E+02 0.17736570316E+02 0.17214739870E+02 0.16674706964E+02 0.16121575584E+02
 0.15551738068E+02 0.14964453810E+02 0.14375215276E+02 0.13816889930E+02 0.13335015045E+02
 0.12978532010E+02 0.12788573106E+02 0.12788573105E+02 0.12978532016E+02 0.13335015072E+02
 0.13816889962E+02 0.14375215278E+02 0.14964453768E+02 0.15551738012E+02 0.16121575553E+02
 0.16674706966E+02 0.17214739877E+02 0.17736570288E+02 0.18227784391E+02 0.18667059111E+02
 0.19010847035E+02 0.19180871411E+02 0.19104561352E+02 0.18734777113E+02 0.18062366961E+02
 0.17124265395E+02 0.16005451605E+02 0.14832651509E+02 0.13758270359E+02 0.12935487786E+02
 0.12489037683E+02 0.12489036290E+02 0.12935484882E+02 0.13758268469E+02 0.14832651958E+02
 0.16260250547E+02 0.17089991993E+02 0.17736921140E+02 0.18154979773E+02 0.18338729278E+02
 0.18318125434E+02 0.18148081935E+02 0.17889199055E+02 0.17572917604E+02 0.17214739870E+02
 0.16821901288E+02 0.16394321649E+02 0.15920964050E+02 0.15394213048E+02 0.14824993686E+02
 0.14245296723E+02 0.13704637995E+02 0.13261077663E+02 0.12969009979E+02 0.12867010929E+02
 0.12969009968E+02 0.13261077688E+02 0.13704638067E+02 0.14245296787E+02 0.14824993698E+02
 0.15394213019E+02 0.15920964008E+02 0.16394321603E+02 0.16821901249E+02 0.17214739867E+02
 0.17572917635E+02 0.17889199073E+02 0.18148081910E+02 0.18318125411E+02 0.18338729320E+02
 0.18154979866E+02 0.17736921200E+02 0.17089991969E+02 0.16260250475E+02 0.15332630509E+02
 0.14421024772E+02 0.13650564751E+02 0.13134893735E+02 0.12953486892E+02 0.13134893747E+02
 0.13650564765E+02 0.14421024798E+02 0.15332630566E+02 0.15950616586E+02 0.16540155610E+02
 0.16972004298E+02 0.17231467175E+02 0.17335029513E+02 0.17322225664E+02 0.17235056157E+02
 0.17093083333E+02 0.16905769061E+02 0.16674706964E+02 0.16394321649E+02 0.16046412850E+02
 0.15614392319E+02 0.15101444456E+02 0.14534816919E+02 0.13963916999E+02 0.13452354941E+02
 0.13065580142E+02 0.12857154812E+02 0.12857154788E+02 0.13065580107E+02 0.13452354949E+02
 0.13963917048E+02 0.14534816967E+02 0.15101444486E+02 0.15614392340E+02 0.16046412852E+02
 0.16394321617E+02 0.16674706944E+02 0.16905769142E+02 0.17093083505E+02 0.17235056208E+02
 0.17322225314E+02 0.17335028742E+02 0.17231466447E+02 0.16972004361E+02 0.16540156862E+02
 0.15950618509E+02 0.15251667624E+02 0.14520550653E+02 0.13851823630E+02 0.13340462186E+02
 0.13063311574E+02 0.13063312743E+02 0.13340464853E+02 0.13851825946E+02 0.14520551186E+02
 0.15251666343E+02 0.15194708298E+02 0.15614392322E+02 0.15920964050E+02 0.16121575580E+02
 0.16242840976E+02 0.16308422666E+02 0.16329009394E+02 0.16308422662E+02 0.16242840976E+02
 0.16121575584E+02 0.15920964050E+02 0.15614392319E+02 0.15194708298E+02 0.14680681902E+02
 0.14117050058E+02 0.13568229382E+02 0.13106714518E+02 0.12798725868E+02 0.12690532285E+02
 0.12798725780E+02 0.13106714410E+02 0.13568229334E+02 0.14117050100E+02 0.14680681994E+02
 0.15194708368E+02 0.15614392326E+02 0.15920964015E+02 0.16121575552E+02 0.16242840969E+02
 0.16308422663E+02 0.16329009388E+02 0.16308422659E+02 0.16242840969E+02 0.16121575556E+02
 0.15920964015E+02 0.15614392322E+02 0.15194708368E+02 0.14680681998E+02 0.14117050100E+02
 0.13568229331E+02 0.13106714410E+02 0.12798725784E+02 0.12690532285E+02 0.12798725865E+02
 0.13106714518E+02 0.13568229386E+02 0.14117050058E+02 0.14680681899E+02 0.14144492205E+02
 0.14475525220E+02 0.14747527199E+02 0.14974857645E+02 0.15167074315E+02 0.15329466553E+02
 0.15461277606E+02 0.15554192076E+02 0.15593108673E+02 0.15551738068E+02 0.15394213048E+02
 0.15101444456E+02 0.14680681902E+02 0.14167635178E+02 0.13622296263E+02 0.13118912684E+02
 0.12732058851E+02 0.12521878263E+02 0.12521878185E+02 0.12732058682E+02 0.13118912563E+02
 0.13622296274E+02 0.14167635290E+02 0.14680682007E+02 0.15101444475E+02 0.15394212996E+02
 0.15551738004E+02 0.15593108588E+02 0.15554191906E+02 0.15461277435E+02 0.15329466718E+02
 0.15167075085E+02 0.14974858683E+02 0.14747527563E+02 0.14475524199E+02 0.14144490219E+02
 0.13752733182E+02 0.13318883365E+02 0.12880290418E+02 0.12486272924E+02 0.12187906816E+02
 0.12027000644E+02 0.12027000165E+02 0.12187905414E+02 0.12486270980E+02 0.12880288922E+02
 0.13318883361E+02 0.13752734746E+02 0.12964919604E+02 0.13284954914E+02 0.13587728484E+02
 0.13876893535E+02 0.14154311032E+02 0.14416217795E+02 0.14651325524E+02 0.14841206289E+02
 0.14959405146E+02 0.14964453810E+02 0.14824993686E+02 0.14534816919E+02 0.14117050058E+02
 0.13622296263E+02 0.13120757890E+02 0.12689681474E+02 0.12398650356E+02 0.12295895514E+02
 0.12398650274E+02 0.12689681374E+02 0.13120757844E+02 0.13622296299E+02 0.14117050147E+02
 0.14534817001E+02 0.14824993711E+02 0.14964453778E+02 0.14959405097E+02 0.14841206258E+02
 0.14651325506E+02 0.14416217772E+02 0.14154311018E+02 0.13876893568E+02 0.13587728563E+02
 0.13284954977E+02 0.12964919586E+02 0.12625192802E+02 0.12267752595E+02 0.11908308488E+02
 0.11575089922E+02 0.11302596409E+02 0.11123507981E+02 0.11061022773E+02 0.11123507921E+02
 0.11302596324E+02 0.11575089869E+02 0.11908308512E+02 0.12267752688E+02 0.12625192895E+02
 0.11799326422E+02 0.12148909236E+02 0.12505119306E+02 0.12868017120E+02 0.13232606394E+02
 0.13586516674E+02 0.13909804885E+02 0.14176302641E+02 0.14345468526E+02 0.14375215276E+02
 0.14245296723E+02 0.13963916999E+02 0.13568229382E+02 0.13118912684E+02 0.12689681474E+02
 0.12353670456E+02 0.12169421231E+02 0.12169421231E+02 0.12353670439E+02 0.12689681422E+02
 0.13118912624E+02 0.13568229381E+02 0.13963917085E+02 0.14245296830E+02 0.14375215322E+02
 0.14345468546E+02 0.14176302770E+02 0.13909805106E+02 0.13586516650E+02 0.13232605730E+02
 0.12868015953E+02 0.12505118523E+02 0.12148909814E+02 0.11799328355E+02 0.11455054937E+02
 0.11117648662E+02 0.10794257993E+02 0.10497594171E+02 0.10246854488E+02 0.10063798755E+02
 0.99669769783E+01 0.99669768910E+01 0.10063798963E+02 0.10246855683E+02 0.10497596053E+02
 0.10794259204E+02 0.11117648093E+02 0.11455052927E+02 0.10718676377E+02 0.11114406261E+02
 0.11533482248E+02 0.11971277332E+02 0.12416251129E+02 0.12849051385E+02 0.13243817863E+02
 0.13565988316E+02 0.13768139625E+02 0.13816889930E+02 0.13704637995E+02 0.13452354941E+02
 0.13106714518E+02 0.12732058851E+02 0.12398650356E+02 0.12169421231E+02 0.12087842086E+02
 0.12169421194E+02 0.12398650289E+02 0.12732058779E+02 0.13106714481E+02 0.13452354962E+02
 0.13704638057E+02 0.13816889983E+02 0.13768139642E+02 0.13565988312E+02 0.13243817873E+02
 0.12849051412E+02 0.12416251132E+02 0.11971277273E+02 0.11533482149E+02 0.11114406188E+02
 0.10718676386E+02 0.10346692417E+02 0.99982064283E+01 0.96755923229E+01 0.93856757192E+01
 0.91395355930E+01 0.89504824664E+01 0.88310322244E+01 0.87901252302E+01 0.88310322771E+01
 0.89504825421E+01 0.91395356489E+01 0.93856757199E+01 0.96755922578E+01 0.99982063243E+01
 0.10346692333E+02 0.97582935090E+01 0.10206888024E+02 0.10689185363E+02 0.11196034669E+02
 0.11710661655E+02 0.12209022109E+02 0.12661597885E+02 0.13025729063E+02 0.13257772009E+02
 0.13335015045E+02 0.13261077663E+02 0.13065580142E+02 0.12798725868E+02 0.12521878263E+02
 0.12295895514E+02 0.12169421231E+02 0.12169421194E+02 0.12295895434E+02 0.12521878202E+02
 0.12798725850E+02 0.13065580140E+02 0.13261077655E+02 0.13335015040E+02 0.13257771990E+02
 0.13025728934E+02 0.12661597629E+02 0.12209021999E+02 0.11710662137E+02 0.11196035800E+02
 0.10689186412E+02 0.10206887918E+02 0.97582919047E+01 0.93465431007E+01 0.89716710600E+01
 0.86337232985E+01 0.83350784088E+01 0.80812448266E+01 0.78800899267E+01 0.77400424648E+01
 0.76680672956E+01 0.76680675969E+01 0.77400428866E+01 0.78800895415E+01 0.80812433241E+01
 0.83350766410E+01 0.86337226612E+01 0.89716722057E+01 0.93465452505E+01 0.89340661723E+01
 0.94352590553E+01 0.99760916701E+01 0.10543862204E+02 0.11118360766E+02 0.11673226850E+02
 0.12175882108E+02 0.12580946481E+02 0.12852904303E+02 0.12978532010E+02 0.12969009979E+02
 0.12857154812E+02 0.12690532285E+02 0.12521878185E+02 0.12398650274E+02 0.12353670439E+02
 0.12398650289E+02 0.12521878202E+02 0.12690532292E+02 0.12857154803E+02 0.12969009954E+02
 0.12978531978E+02 0.12852904283E+02 0.12580946483E+02 0.12175882122E+02 0.11673226858E+02
 0.11118360770E+02 0.10543862225E+02 0.99760917141E+01 0.94352590963E+01 0.89340661745E+01
 0.84783659447E+01 0.80693489098E+01 0.77063674485E+01 0.73894020202E+01 0.71204220075E+01
 0.69034173050E+01 0.67434296498E+01 0.66452126677E+01 0.66120807102E+01 0.66452126503E+01
 0.67434296124E+01 0.69034172566E+01 0.71204219730E+01 0.73894020247E+01 0.77063674960E+01
 0.80693489760E+01 0.84783659901E+01 0.82477650762E+01 0.87982429433E+01 0.93921579521E+01
 0.10014566034E+02 0.10643596435E+02 0.11252434650E+02 0.11805965288E+02 0.12261569960E+02
 0.12591399122E+02 0.12788573106E+02 0.12867010929E+02 0.12857154788E+02 0.12798725780E+02
 0.12732058682E+02 0.12689681374E+02 0.12689681422E+02 0.12732058779E+02 0.12798725850E+02
 0.12857154803E+02 0.12867010908E+02 0.12788573066E+02 0.12591399101E+02 0.12261570066E+02
 0.11805965587E+02 0.11252434922E+02 0.10643596184E+02 0.10014564996E+02 0.93921566583E+01
 0.87982425376E+01 0.82477662647E+01 0.77486295840E+01 0.73032300290E+01 0.69109138949E+01
 0.65704183462E+01 0.62815277319E+01 0.60456016789E+01 0.58651471681E+01 0.57429435699E+01
 0.56812333539E+01 0.56812331631E+01 0.57429431553E+01 0.58651470122E+01 0.60456023533E+01
 0.62815292538E+01 0.65704197825E+01 0.69109139883E+01 0.73032284497E+01 0.77486274207E+01
 0.76941315280E+01 0.82910737101E+01 0.89350485875E+01 0.96100814542E+01 0.10293962546E+02
 0.10960249013E+02 0.11572984479E+02 0.12094113735E+02 0.12500864429E+02 0.12788573105E+02
 0.12969009968E+02 0.13065580107E+02 0.13106714410E+02 0.13118912563E+02 0.13120757844E+02
 0.13118912624E+02 0.13106714481E+02 0.13065580140E+02 0.12969009954E+02 0.12788573066E+02
 0.12500864393E+02 0.12094113714E+02 0.11572984479E+02 0.10960249033E+02 0.10293962576E+02
 0.96100814705E+01 0.89350485660E+01 0.82910736562E+01 0.76941314866E+01 0.71533122395E+01
 0.66718273501E+01 0.62490994223E+01 0.58830984719E+01 0.55721459223E+01 0.53157559595E+01
 0.51145594294E+01 0.49697222459E+01 0.48823476100E+01 0.48531444283E+01 0.48823476123E+01
 0.49697222435E+01 0.51145594323E+01 0.53157559852E+01 0.55721459565E+01 0.58830984695E+01
 0.62490993660E+01 0.66718272840E+01 0.71533122229E+01 0.72669123071E+01 0.79101803584E+01
 0.86050238553E+01 0.93352296683E+01 0.10078869298E+02 0.10809995425E+02 0.11493279228E+02
 0.12094113822E+02 0.12591399126E+02 0.12978532016E+02 0.13261077688E+02 0.13452354949E+02
 0.13568229334E+02 0.13622296274E+02 0.13622296299E+02 0.13568229381E+02 0.13452354962E+02
 0.13261077655E+02 0.12978531978E+02 0.12591399101E+02 0.12094113714E+02 0.11493278924E+02
 0.10809995068E+02 0.10078869379E+02 0.93352305935E+01 0.86050252951E+01 0.79101812012E+01
 0.72669115805E+01 0.66847807361E+01 0.61673336344E+01 0.57138812371E+01 0.53217090541E+01
 0.49879545629E+01 0.47106646609E+01 0.44889703491E+01 0.43226973245E+01 0.42118786296E+01
 0.41564974591E+01 0.41564974710E+01 0.42118787745E+01 0.43226976267E+01 0.44889703673E+01
 0.47106638252E+01 0.49879530263E+01 0.53217079355E+01 0.57138816784E+01 0.61673355688E+01
 0.66847827888E+01 0.69622120940E+01 0.76548771347E+01 0.84048264423E+01 0.91958366207E+01
 0.10006155889E+02 0.10809995092E+02 0.11572984492E+02 0.12261570068E+02 0.12852904298E+02
 0.13335015072E+02 0.13704638067E+02 0.13963917048E+02 0.14117050100E+02 0.14167635290E+02
 0.14117050147E+02 0.13963917085E+02 0.13704638057E+02 0.13335015040E+02 0.12852904283E+02
 0.12261570066E+02 0.11572984479E+02 0.10809995068E+02 0.10006155876E+02 0.91958366351E+01
 0.84048264858E+01 0.76548771972E+01 0.69622121449E+01 0.63365223633E+01 0.57813786048E+01
 0.52957959956E+01 0.48763298613E+01 0.45189951130E+01 0.42204923071E+01 0.39785915741E+01
 0.37918994000E+01 0.36594340372E+01 0.35803752464E+01 0.35541020622E+01 0.35803752598E+01
 0.36594340621E+01 0.37918994152E+01 0.39785915497E+01 0.42204922490E+01 0.45189950764E+01
 0.48763298961E+01 0.52957960842E+01 0.57813786762E+01 0.63365223675E+01 0.67790024133E+01
 0.75265144083E+01 0.83376361209E+01 0.91958373413E+01 0.10078869250E+02 0.10960248608E+02
 0.11805965315E+02 0.12580946421E+02 0.13257771994E+02 0.13816889962E+02 0.14245296787E+02
 0.14534816967E+02 0.14680681994E+02 0.14680682007E+02 0.14534817001E+02 0.14245296830E+02
 0.13816889983E+02 0.13257771990E+02 0.12580946483E+02 0.11805965587E+02 0.10960249033E+02
 0.10078869379E+02 0.91958366351E+01 0.83376346607E+01 0.75265132006E+01 0.67790026396E+01
 0.61050002153E+01 0.55080990173E+01 0.49870142670E+01 0.45375944385E+01 0.41547713552E+01
 0.38339303891E+01 0.35714910738E+01 0.33648358328E+01 0.32119528805E+01 0.31111690869E+01
 0.30611586898E+01 0.30611587542E+01 0.31111691252E+01 0.32119526697E+01 0.33648355222E+01
 0.35714912378E+01 0.38339314373E+01 0.41547728369E+01 0.45375951491E+01 0.49870133267E+01
 0.55080968806E+01 0.61049984171E+01 0.67177966116E+01 0.75265132619E+01 0.84048265235E+01
 0.93352305818E+01 0.10293962542E+02 0.11252434915E+02 0.12175882147E+02 0.13025728945E+02
 0.13768139610E+02 0.14375215278E+02 0.14824993698E+02 0.15101444486E+02 0.15194708368E+02
 0.15101444475E+02 0.14824993711E+02 0.14375215322E+02 0.13768139642E+02 0.13025728934E+02
 0.12175882122E+02 0.11252434922E+02 0.10293962576E+02 0.93352305935E+01 0.84048264858E+01
 0.75265132006E+01 0.67177965692E+01 0.59892067322E+01 0.53446522995E+01 0.47827796987E+01
 0.42989247818E+01 0.38870837143E+01 0.35414050933E+01 0.32569586271E+01 0.30298455249E+01
 0.28569464015E+01 0.27356601137E+01 0.26638637875E+01 0.26401058580E+01 0.26638637669E+01
 0.27356600687E+01 0.28569463598E+01 0.30298455356E+01 0.32569586967E+01 0.35414051624E+01
 0.38870837205E+01 0.42989247247E+01 0.47827796271E+01 0.53446522563E+01 0.59892067330E+01
 0.67790023070E+01 0.76548756881E+01 0.86050238927E+01 0.96100809867E+01 0.10643596495E+02
 0.11673227368E+02 0.12661597923E+02 0.13565988362E+02 0.14345468511E+02 0.14964453768E+02
 0.15394213019E+02 0.15614392340E+02 0.15614392326E+02 0.15394212996E+02 0.14964453778E+02
 0.14345468546E+02 0.13565988312E+02 0.12661597629E+02 0.11673226858E+02 0.10643596184E+02
 0.96100814705E+01 0.86050252951E+01 0.76548771972E+01 0.67790026396E+01 0.59892067322E+01
 0.52902025584E+01 0.46809764862E+01 0.41567098340E+01 0.37107590498E+01 0.33362382660E+01
 0.30269527592E+01 0.27776986448E+01 0.25841576091E+01 0.24426942294E+01 0.23502926741E+01
 0.23047034240E+01 0.23047034084E+01 0.23502926463E+01 0.24426942822E+01 0.25841578302E+01
 0.27776988326E+01 0.30269523925E+01 0.33362370962E+01 0.37107577325E+01 0.41567096025E+01
 0.46809779182E+01 0.52902047861E+01 0.59892081267E+01 0.69622120649E+01 0.79101811293E+01
 0.89350485479E+01 0.10014565023E+02 0.11118360797E+02 0.12209022004E+02 0.13243817875E+02
 0.14176302789E+02 0.14959405122E+02 0.15551738012E+02 0.15920964008E+02 0.16046412852E+02
 0.15920964015E+02 0.15551738004E+02 0.14959405097E+02 0.14176302770E+02 0.13243817873E+02
 0.12209021999E+02 0.11118360770E+02 0.10014564996E+02 0.89350485660E+01 0.79101812012E+01
 0.69622121449E+01 0.61050002153E+01 0.53446522995E+01 0.46809764862E+01 0.41094305376E+01
 0.36231212273E+01 0.32144480697E+01 0.28761605140E+01 0.26018256761E+01 0.23858875625E+01
 0.22235738315E+01 0.21108630798E+01 0.20446053934E+01 0.20227568774E+01 0.20446054182E+01
 0.21108631239E+01 0.22235738715E+01 0.23858875652E+01 0.26018256316E+01 0.28761604529E+01
 0.32144480392E+01 0.36231212524E+01 0.41094306063E+01 0.46809765600E+01 0.53446523333E+01
 0.61050001833E+01 0.72669124037E+01 0.82910753708E+01 0.93921579468E+01 0.10543862441E+02
 0.11710661603E+02 0.12849050827E+02 0.13909804860E+02 0.14841206282E+02 0.15593108651E+02
 0.16121575553E+02 0.16394321603E+02 0.16394321617E+02 0.16121575552E+02 0.15593108588E+02
 0.14841206258E+02 0.13909805106E+02 0.12849051412E+02 0.11710662137E+02 0.10543862225E+02
 0.93921566583E+01 0.82910736562E+01 0.72669115805E+01 0.63365223633E+01 0.55080990173E+01
 0.47827796987E+01 0.41567098340E+01 0.36231212273E+01 0.31740476164E+01 0.28014737076E+01
 0.24979267097E+01 0.22566778111E+01 0.20717762506E+01 0.19380956379E+01 0.18514755568E+01
 0.18089439605E+01 0.18089439043E+01 0.18514754842E+01 0.19380956462E+01 0.20717762200E+01
 0.22566776243E+01 0.24979266433E+01 0.28014742827E+01 0.31740488591E+01 0.36231222581E+01
 0.41567095322E+01 0.47827778988E+01 0.55080968924E+01 0.63365214484E+01 0.76941315772E+01
 0.87982426229E+01 0.99760917478E+01 0.11196035772E+02 0.12416251069E+02 0.13586516593E+02
 0.14651325479E+02 0.15554191913E+02 0.16242840995E+02 0.16674706966E+02 0.16821901249E+02
 0.16674706944E+02 0.16242840969E+02 0.15554191906E+02 0.14651325506E+02 0.13586516650E+02
 0.12416251132E+02 0.11196035800E+02 0.99760917141E+01 0.87982425376E+01 0.76941314866E+01
 0.66847807361E+01 0.57813786048E+01 0.49870142670E+01 0.42989247818E+01 0.37107590498E+01
 0.32144480697E+01 0.28014737076E+01 0.24635592683E+01 0.21929669066E+01 0.19826293188E+01
 0.18262831953E+01 0.17186697753E+01 0.16557831016E+01 0.16351071025E+01 0.16557830804E+01
 0.17186697409E+01 0.18262831646E+01 0.19826293125E+01 0.21929669345E+01 0.24635593186E+01
 0.28014737506E+01 0.32144480759E+01 0.37107590080E+01 0.42989247077E+01 0.49870141981E+01
 0.57813785828E+01 0.66847807807E+01 0.82477649788E+01 0.94352573101E+01 0.10689185404E+02
 0.11971277394E+02 0.13232606401E+02 0.14416218287E+02 0.15461277577E+02 0.16308422632E+02
 0.16905769130E+02 0.17214739877E+02 0.17214739867E+02 0.16905769142E+02 0.16308422663E+02
 0.15461277435E+02 0.14416217772E+02 0.13232605730E+02 0.11971277273E+02 0.10689186412E+02
 0.94352590963E+01 0.82477662647E+01 0.71533122395E+01 0.61673336344E+01 0.52957959956E+01
 0.45375944385E+01 0.38870837143E+01 0.33362382660E+01 0.28761605140E+01 0.24979267097E+01
 0.21929669066E+01 0.19532433634E+01 0.17714271856E+01 0.16411488661E+01 0.15572958343E+01
 0.15162898880E+01 0.15162899638E+01 0.15572959625E+01 0.16411488911E+01 0.17714271298E+01
 0.19532434076E+01 0.21929670647E+01 0.24979266197E+01 0.28761597755E+01 0.33362370917E+01
 0.38870830672E+01 0.45375952213E+01 0.52957980072E+01 0.61673355054E+01 0.71533125975E+01
 0.89340660704E+01 0.10206887857E+02 0.11533482160E+02 0.12868016008E+02 0.14154311062E+02
 0.15329466732E+02 0.16329009396E+02 0.17093083531E+02 0.17572917664E+02 0.17736570288E+02
 0.17572917635E+02 0.17093083505E+02 0.16329009388E+02 0.15329466718E+02 0.14154311018E+02
 0.12868015953E+02 0.11533482149E+02 0.10206887918E+02 0.89340661745E+01 0.77486295840E+01
 0.66718273501E+01 0.57138812371E+01 0.48763298613E+01 0.41547713552E+01 0.35414050933E+01
 0.30269527592E+01 0.26018256761E+01 0.22566778111E+01 0.19826293188E+01 0.17714271856E+01
 0.16156827237E+01 0.15091890790E+01 0.14472477933E+01 0.14269318773E+01 0.14472478038E+01
 0.15091890958E+01 0.16156827408E+01 0.17714271954E+01 0.19826293131E+01 0.22566777851E+01
 0.26018256369E+01 0.30269527298E+01 0.35414051018E+01 0.41547714121E+01 0.48763299434E+01
 0.57138812951E+01 0.66718273400E+01 0.77486295029E+01 0.97582935443E+01 0.11114407918E+02
 0.12505119193E+02 0.13876893129E+02 0.15167074298E+02 0.16308422195E+02 0.17235056165E+02
 0.17889199195E+02 0.18227784455E+02 0.18227784391E+02 0.17889199073E+02 0.17235056208E+02
 0.16308422659E+02 0.15167075085E+02 0.13876893568E+02 0.12505118523E+02 0.11114406188E+02
 0.97582919047E+01 0.84783659447E+01 0.73032300290E+01 0.62490994223E+01 0.53217090541E+01
 0.45189951130E+01 0.38339303891E+01 0.32569586271E+01 0.27776986448E+01 0.23858875625E+01
 0.20717762506E+01 0.18262831953E+01 0.16411488661E+01 0.15091890790E+01 0.14246212782E+01
 0.13833847596E+01 0.13833847018E+01 0.14246211564E+01 0.15091890057E+01 0.16411489002E+01
 0.18262832506E+01 0.20717761928E+01 0.23858874687E+01 0.27776988780E+01 0.32569594432E+01
 0.38339314025E+01 0.45189953620E+01 0.53217078845E+01 0.62490973540E+01 0.73032285292E+01
 0.84783661439E+01 0.10718676459E+02 0.12148909808E+02 0.13587728495E+02 0.14974858614E+02
 0.16242840943E+02 0.17322225324E+02 0.18148081925E+02 0.18667059117E+02 0.18844109236E+02
 0.18667059111E+02 0.18148081910E+02 0.17322225314E+02 0.16242840969E+02 0.14974858683E+02
 0.13587728563E+02 0.12148909814E+02 0.10718676386E+02 0.93465431007E+01 0.80693489098E+01
 0.69109138949E+01 0.58830984719E+01 0.49879545629E+01 0.42204923071E+01 0.35714910738E+01
 0.30298455249E+01 0.25841576091E+01 0.22235738315E+01 0.19380956379E+01 0.17186697753E+01
 0.15572958343E+01 0.14472477933E+01 0.13833847596E+01 0.13624664974E+01 0.13833847556E+01
 0.14472477895E+01 0.15572958291E+01 0.17186697623E+01 0.19380956197E+01 0.22235738253E+01
 0.25841576295E+01 0.30298455627E+01 0.35714910976E+01 0.42204922877E+01 0.49879545005E+01
 0.58830984050E+01 0.69109138779E+01 0.80693489693E+01 0.93465432037E+01 0.11799326400E+02
 0.13284953392E+02 0.14747527294E+02 0.16121576278E+02 0.17335029542E+02 0.18318125759E+02
 0.19010847021E+02 0.19368963378E+02 0.19368963433E+02 0.19010847035E+02 0.18318125411E+02
 0.17335028742E+02 0.16121575556E+02 0.14747527563E+02 0.13284954977E+02 0.11799328355E+02
 0.10346692417E+02 0.89716710600E+01 0.77063674485E+01 0.65704183462E+01 0.55721459223E+01
 0.47106646609E+01 0.39785915741E+01 0.33648358328E+01 0.28569464015E+01 0.24426942294E+01
 0.21108630798E+01 0.18514755568E+01 0.16557831016E+01 0.15162898880E+01 0.14269318773E+01
 0.13833847018E+01 0.13833847556E+01 0.14269319818E+01 0.15162899444E+01 0.16557830800E+01
 0.18514755061E+01 0.21108630662E+01 0.24426942689E+01 0.28569463776E+01 0.33648354916E+01
 0.39785907988E+01 0.47106638797E+01 0.55721460198E+01 0.65704197979E+01 0.77063695098E+01