   2   2   0   0
  0.2001288E+02  0.3839590E-09  0.3839590E-09  0.3839590E-09  0.5000000E-15
  1.000000000000000E-004
  CAR 
 Silicon DFT Groundstate Calculation     
     16.56023570     -7.59609000  301      5.69114728      1.00000000
     -7.596  0.0000E+00  0.0000E+00
     -7.516  0.0000E+00  0.0000E+00
     -7.435  0.0000E+00  0.0000E+00
     -7.355  0.0000E+00  0.0000E+00
     -7.274  0.0000E+00  0.0000E+00
     -7.193  0.0000E+00  0.0000E+00
     -7.113  0.0000E+00  0.0000E+00
     -7.032  0.0000E+00  0.0000E+00
     -6.952  0.0000E+00  0.0000E+00
     -6.871  0.0000E+00  0.0000E+00
     -6.791  0.1489E-18  0.1199E-19
     -6.710  0.2667E-11  0.2147E-12
     -6.630  0.3226E-06  0.2598E-07
     -6.549  0.5175E-03  0.4170E-04
     -6.469  0.2183E-01  0.1800E-02
     -6.388  0.8714E-01  0.8816E-02
     -6.308  0.1287E+00  0.1918E-01
     -6.227  0.1695E+00  0.3283E-01
     -6.147  0.1919E+00  0.4828E-01
     -6.066  0.2249E+00  0.6639E-01
     -5.986  0.2195E+00  0.8406E-01
     -5.905  0.3065E+00  0.1087E+00
     -5.825  0.2347E+00  0.1276E+00
     -5.744  0.3184E+00  0.1533E+00
     -5.664  0.3615E+00  0.1824E+00
     -5.583  0.2735E+00  0.2044E+00
     -5.503  0.3704E+00  0.2342E+00
     -5.422  0.4226E+00  0.2683E+00
     -5.341  0.3700E+00  0.2981E+00
     -5.261  0.3289E+00  0.3245E+00
     -5.180  0.5348E+00  0.3676E+00
     -5.100  0.4128E+00  0.4008E+00
     -5.019  0.4594E+00  0.4378E+00
     -4.939  0.4099E+00  0.4708E+00
     -4.858  0.5782E+00  0.5174E+00
     -4.778  0.5615E+00  0.5626E+00
     -4.697  0.4593E+00  0.5996E+00
     -4.617  0.5106E+00  0.6407E+00
     -4.536  0.6690E+00  0.6946E+00
     -4.456  0.6762E+00  0.7490E+00
     -4.375  0.5779E+00  0.7956E+00
     -4.295  0.5815E+00  0.8424E+00
     -4.214  0.8337E+00  0.9095E+00
     -4.134  0.9420E+00  0.9854E+00
     -4.053  0.8440E+00  0.1053E+01
     -3.973  0.6475E+00  0.1105E+01
     -3.892  0.9896E+00  0.1185E+01
     -3.812  0.8833E+00  0.1256E+01
     -3.731  0.6637E+00  0.1310E+01
     -3.651  0.7000E+00  0.1366E+01
     -3.570  0.7599E+00  0.1427E+01
     -3.490  0.7352E+00  0.1486E+01
     -3.409  0.6532E+00  0.1539E+01
     -3.328  0.5512E+00  0.1583E+01
     -3.248  0.6094E+00  0.1633E+01
     -3.167  0.7677E+00  0.1694E+01
     -3.087  0.3295E+00  0.1721E+01
     -3.006  0.5047E+00  0.1762E+01
     -2.926  0.6635E+00  0.1815E+01
     -2.845  0.4379E+00  0.1850E+01
     -2.765  0.2302E+00  0.1869E+01
     -2.684  0.4182E+00  0.1902E+01
     -2.604  0.5557E+00  0.1947E+01
     -2.523  0.1894E+00  0.1962E+01
     -2.443  0.1194E+00  0.1972E+01
     -2.362  0.2228E+00  0.1990E+01
     -2.282  0.1803E+00  0.2004E+01
     -2.201  0.7348E-01  0.2010E+01
     -2.121  0.8198E-01  0.2017E+01
     -2.040  0.8648E-01  0.2024E+01
     -1.960  0.2831E+00  0.2047E+01
     -1.879  0.4270E+00  0.2081E+01
     -1.799  0.2911E+00  0.2105E+01
     -1.718  0.2612E+00  0.2126E+01
     -1.638  0.3250E+00  0.2152E+01
     -1.557  0.8617E+00  0.2221E+01
     -1.476  0.5477E+00  0.2265E+01
     -1.396  0.7455E+00  0.2325E+01
     -1.315  0.1668E+01  0.2460E+01
     -1.235  0.1569E+01  0.2586E+01
     -1.154  0.1091E+01  0.2674E+01
     -1.074  0.9269E+00  0.2748E+01
     -0.993  0.7768E+00  0.2811E+01
     -0.913  0.8053E+00  0.2876E+01
     -0.832  0.6661E+00  0.2930E+01
     -0.752  0.6544E+00  0.2982E+01
     -0.671  0.6917E+00  0.3038E+01
     -0.591  0.5177E+00  0.3080E+01
     -0.510  0.3964E+00  0.3112E+01
     -0.430  0.7332E+00  0.3171E+01
     -0.349  0.3585E+00  0.3199E+01
     -0.269  0.4916E+00  0.3239E+01
     -0.188  0.5147E+00  0.3280E+01
     -0.108  0.2645E+00  0.3302E+01
     -0.027  0.5083E+00  0.3343E+01
      0.053  0.3393E+00  0.3370E+01
      0.134  0.3428E+00  0.3398E+01
      0.214  0.5250E+00  0.3440E+01
      0.295  0.1599E+00  0.3453E+01
      0.375  0.2361E+00  0.3472E+01
      0.456  0.5447E+00  0.3516E+01
      0.537  0.1511E+00  0.3528E+01
      0.617  0.2249E+00  0.3546E+01
      0.698  0.4588E+00  0.3583E+01
      0.778  0.2052E+00  0.3599E+01
      0.859  0.1154E+00  0.3609E+01
      0.939  0.3224E+00  0.3635E+01
      1.020  0.2282E+00  0.3653E+01
      1.100  0.3468E+00  0.3681E+01
      1.181  0.6651E+00  0.3734E+01
      1.261  0.9236E+00  0.3809E+01
      1.342  0.8557E+00  0.3878E+01
      1.422  0.1281E+01  0.3981E+01
      1.503  0.1239E+01  0.4081E+01
      1.583  0.9124E+00  0.4154E+01
      1.664  0.1323E+01  0.4261E+01
      1.744  0.9005E+00  0.4333E+01
      1.825  0.9627E+00  0.4411E+01
      1.905  0.1184E+01  0.4506E+01
      1.986  0.8469E+00  0.4574E+01
      2.066  0.9919E+00  0.4654E+01
      2.147  0.1124E+01  0.4745E+01
      2.227  0.1364E+01  0.4855E+01
      2.308  0.8948E+00  0.4927E+01
      2.389  0.1120E+01  0.5017E+01
      2.469  0.1270E+01  0.5119E+01
      2.550  0.1306E+01  0.5224E+01
      2.630  0.1441E+01  0.5340E+01
      2.711  0.1274E+01  0.5443E+01
      2.791  0.1856E+01  0.5592E+01
      2.872  0.1476E+01  0.5711E+01
      2.952  0.1473E+01  0.5830E+01
      3.033  0.9018E+00  0.5902E+01
      3.113  0.1715E+01  0.6040E+01
      3.194  0.1747E+01  0.6181E+01
      3.274  0.1189E+01  0.6277E+01
      3.355  0.1086E+01  0.6364E+01
      3.435  0.1439E+01  0.6480E+01
      3.516  0.1408E+01  0.6593E+01
      3.596  0.1156E+01  0.6687E+01
      3.677  0.1407E+01  0.6800E+01
      3.757  0.1235E+01  0.6899E+01
      3.838  0.1128E+01  0.6990E+01
      3.918  0.1160E+01  0.7084E+01
      3.999  0.1127E+01  0.7174E+01
      4.079  0.1348E+01  0.7283E+01
      4.160  0.1142E+01  0.7375E+01
      4.241  0.1009E+01  0.7456E+01
      4.321  0.1087E+01  0.7544E+01
      4.402  0.7557E+00  0.7604E+01
      4.482  0.7317E+00  0.7663E+01
      4.563  0.6485E+00  0.7716E+01
      4.643  0.5490E+00  0.7760E+01
      4.724  0.5116E+00  0.7801E+01
      4.804  0.5538E+00  0.7846E+01
      4.885  0.3217E+00  0.7871E+01
      4.965  0.3816E+00  0.7902E+01
      5.046  0.2541E+00  0.7923E+01
      5.126  0.2607E+00  0.7944E+01
      5.207  0.2977E+00  0.7968E+01
      5.287  0.1792E+00  0.7982E+01
      5.368  0.1244E+00  0.7992E+01
      5.448  0.7615E-01  0.7998E+01
      5.529  0.2219E-01  0.8000E+01
      5.609  0.3971E-03  0.8000E+01
      5.690  0.1919E-06  0.8000E+01
      5.770  0.8567E-12  0.8000E+01
      5.851  0.8309E-09  0.8000E+01
      5.931  0.1940E-04  0.8000E+01
      6.012  0.4382E-02  0.8000E+01
      6.092  0.3529E-01  0.8003E+01
      6.173  0.1215E+00  0.8013E+01
      6.254  0.1799E+00  0.8027E+01
      6.334  0.2659E+00  0.8049E+01
      6.415  0.2893E+00  0.8072E+01
      6.495  0.4386E+00  0.8107E+01
      6.576  0.4417E+00  0.8143E+01
      6.656  0.4636E+00  0.8180E+01
      6.737  0.4066E+00  0.8213E+01
      6.817  0.4965E+00  0.8253E+01
      6.898  0.5851E+00  0.8300E+01
      6.978  0.6369E+00  0.8352E+01
      7.059  0.8573E+00  0.8421E+01
      7.139  0.7273E+00  0.8479E+01
      7.220  0.7059E+00  0.8536E+01
      7.300  0.1161E+01  0.8629E+01
      7.381  0.1078E+01  0.8716E+01
      7.461  0.7183E+00  0.8774E+01
      7.542  0.9989E+00  0.8855E+01
      7.622  0.1429E+01  0.8970E+01
      7.703  0.1838E+01  0.9118E+01
      7.783  0.1512E+01  0.9239E+01
      7.864  0.1690E+01  0.9375E+01
      7.944  0.1485E+01  0.9495E+01
      8.025  0.1569E+01  0.9621E+01
      8.106  0.1227E+01  0.9720E+01
      8.186  0.1227E+01  0.9819E+01
      8.267  0.1359E+01  0.9928E+01
      8.347  0.1011E+01  0.1001E+02
      8.428  0.7941E+00  0.1007E+02
      8.508  0.1140E+01  0.1017E+02
      8.589  0.1266E+01  0.1027E+02
      8.669  0.1300E+01  0.1037E+02
      8.750  0.1860E+01  0.1052E+02
      8.830  0.2747E+01  0.1074E+02
      8.911  0.1864E+01  0.1089E+02
      8.991  0.1637E+01  0.1102E+02
      9.072  0.1601E+01  0.1115E+02
      9.152  0.1666E+01  0.1129E+02
      9.233  0.1575E+01  0.1141E+02
      9.313  0.1283E+01  0.1152E+02
      9.394  0.1566E+01  0.1164E+02
      9.474  0.1667E+01  0.1178E+02
      9.555  0.1189E+01  0.1187E+02
      9.635  0.1720E+01  0.1201E+02
      9.716  0.1508E+01  0.1213E+02
      9.796  0.8503E+00  0.1220E+02
      9.877  0.8062E+00  0.1227E+02
      9.958  0.1152E+01  0.1236E+02
     10.038  0.1440E+01  0.1248E+02
     10.119  0.1181E+01  0.1257E+02
     10.199  0.1273E+01  0.1267E+02
     10.280  0.1351E+01  0.1278E+02
     10.360  0.1572E+01  0.1291E+02
     10.441  0.1395E+01  0.1302E+02
     10.521  0.1146E+01  0.1311E+02
     10.602  0.9834E+00  0.1319E+02
     10.682  0.1040E+01  0.1328E+02
     10.763  0.1385E+01  0.1339E+02
     10.843  0.9242E+00  0.1346E+02
     10.924  0.1033E+01  0.1355E+02
     11.004  0.1263E+01  0.1365E+02
     11.085  0.1159E+01  0.1374E+02
     11.165  0.1336E+01  0.1385E+02
     11.246  0.1214E+01  0.1395E+02
     11.326  0.1359E+01  0.1406E+02
     11.407  0.7994E+00  0.1412E+02
     11.487  0.8542E+00  0.1419E+02
     11.568  0.9456E+00  0.1426E+02
     11.648  0.8110E+00  0.1433E+02
     11.729  0.8893E+00  0.1440E+02
     11.809  0.8172E+00  0.1447E+02
     11.890  0.9695E+00  0.1455E+02
     11.971  0.9886E+00  0.1463E+02
     12.051  0.1241E+01  0.1473E+02
     12.132  0.1585E+01  0.1485E+02
     12.212  0.1070E+01  0.1494E+02
     12.293  0.5752E+00  0.1499E+02
     12.373  0.4864E+00  0.1502E+02
     12.454  0.5877E+00  0.1507E+02
     12.534  0.5041E+00  0.1511E+02
     12.615  0.3838E+00  0.1514E+02
     12.695  0.7626E+00  0.1520E+02
     12.776  0.6548E+00  0.1526E+02
     12.856  0.7756E+00  0.1532E+02
     12.937  0.7491E+00  0.1538E+02
     13.017  0.1085E+01  0.1547E+02
     13.098  0.8896E+00  0.1554E+02
     13.178  0.3717E+00  0.1557E+02
     13.259  0.4564E+00  0.1561E+02
     13.339  0.4367E+00  0.1564E+02
     13.420  0.3482E+00  0.1567E+02
     13.500  0.3462E+00  0.1570E+02
     13.581  0.3587E+00  0.1573E+02
     13.661  0.4488E+00  0.1576E+02
     13.742  0.1942E+00  0.1578E+02
     13.823  0.2162E+00  0.1579E+02
     13.903  0.6107E+00  0.1584E+02
     13.984  0.5371E+00  0.1589E+02
     14.064  0.4794E-01  0.1589E+02
     14.145  0.2864E-01  0.1589E+02
     14.225  0.3582E-01  0.1590E+02
     14.306  0.7139E-01  0.1590E+02
     14.386  0.8744E-01  0.1591E+02
     14.467  0.8700E-01  0.1592E+02
     14.547  0.2401E+00  0.1594E+02
     14.628  0.8626E-01  0.1594E+02
     14.708  0.8192E-01  0.1595E+02
     14.789  0.2741E+00  0.1597E+02
     14.869  0.1688E+00  0.1598E+02
     14.950  0.2865E-01  0.1599E+02
     15.030  0.3619E-03  0.1599E+02
     15.111  0.2165E-06  0.1599E+02
     15.191  0.7329E-03  0.1599E+02
     15.272  0.3173E-01  0.1599E+02
     15.352  0.5421E-01  0.1599E+02
     15.433  0.4682E-01  0.1600E+02
     15.513  0.2507E-01  0.1600E+02
     15.594  0.2367E-02  0.1600E+02
     15.675  0.3121E-05  0.1600E+02
     15.755  0.3093E-10  0.1600E+02
     15.836  0.0000E+00  0.1600E+02
     15.916  0.0000E+00  0.1600E+02
     15.997  0.0000E+00  0.1600E+02
     16.077  0.0000E+00  0.1600E+02
     16.158  0.0000E+00  0.1600E+02
     16.238  0.0000E+00  0.1600E+02
     16.319  0.0000E+00  0.1600E+02
     16.399  0.0000E+00  0.1600E+02
     16.480  0.0000E+00  0.1600E+02
     16.560  0.0000E+00  0.1600E+02
