    2    2    1    1
  0.2001288E+02  0.3839590E-09  0.3839590E-09  0.3839590E-09  0.5000000E-15
  1.000000000000000E-004
  CAR 
 Silicon DFT Groundstate Calculation     
      8    286      8
 
  0.0000000E+00  0.0000000E+00  0.0000000E+00  0.1079797E-03
      1         -6.498075   1.000000
      2          5.465302   1.000000
      3          5.465302   1.000000
      4          5.465302   1.000000
      5          8.030583   0.000000
      6          8.030583   0.000000
      7          8.030583   0.000000
      8          8.832238   0.000000
 
  0.4761905E-01 -0.9915147E-18 -0.8475366E-15  0.8638376E-03
      1         -6.468302   1.000000
      2          5.137832   1.000000
      3          5.414966   1.000000
      4          5.414966   1.000000
      5          8.088245   0.000000
      6          8.104326   0.000000
      7          8.104326   0.000000
      8          9.050266   0.000000
 
  0.9523810E-01  0.1954793E-17 -0.5236910E-14  0.8638376E-03
      1         -6.379284   1.000000
      2          4.403448   1.000000
      3          5.283055   1.000000
      4          5.283055   1.000000
      5          8.052127   0.000000
      6          8.298984   0.000000
      7          8.298984   0.000000
      8          9.678928   0.000000
 
  0.1428571E+00  0.1128077E-17  0.4580798E-14  0.8638376E-03
      1         -6.231903   1.000000
      2          3.533360   1.000000
      3          5.108010   1.000000
      4          5.108011   1.000000
      5          7.907367   0.000000
      6          8.552350   0.000000
      7          8.552350   0.000000
      8         10.493315   0.000000
 
  0.1904762E+00  0.6303504E-17  0.1867147E-15  0.8638376E-03
      1         -6.027930   1.000000
      2          2.635073   1.000000
      3          4.922370   1.000000
      4          4.922371   1.000000
      5          7.724520   0.000000
      6          8.791191   0.000000
      7          8.791191   0.000000
      8         11.348852   0.000000
 
  0.2380952E+00 -0.1878439E-17 -0.6680123E-15  0.8638376E-03
      1         -5.770444   1.000000
      2          1.752764   1.000000
      3          4.746569   1.000000
      4          4.746569   1.000000
      5          7.539530   0.000000
      6          8.950433   0.000000
      7          8.950433   0.000000
      8         12.186475   0.000000
 
  0.2857143E+00  0.3296988E-17 -0.5075973E-14  0.8638376E-03
      1         -5.464836   1.000000
      2          0.911018   1.000000
      3          4.592069   1.000000
      4          4.592069   1.000000
      5          7.371088   0.000000
      6          9.003425   0.000000
      7          9.003425   0.000000
      8         12.929908   0.000000
 
  0.3333333E+00  0.2470272E-17  0.4748674E-14  0.8638376E-03
      1         -5.121117   1.000000
      2          0.130205   1.000000
      3          4.464932   1.000000
      4          4.464932   1.000000
      5          7.229372   0.000000
      6          8.974633   0.000000
      7          8.974633   0.000000
      8         13.355086   0.000000
 
  0.3809524E+00  0.1260701E-16  0.3734295E-15  0.8638376E-03
      1         -4.759323   1.000000
      2         -0.563498   1.000000
      3          4.368224   1.000000
      4          4.368224   1.000000
      5          7.119958   0.000000
      6          8.910237   0.000000
      7          8.910237   0.000000
      8         13.342877   0.000000
 
  0.4285714E+00 -0.9452723E-17 -0.5090531E-15  0.8638376E-03
      1         -4.422508   1.000000
      2         -1.123345   1.000000
      3          4.303326   1.000000
      4          4.303326   1.000000
      5          7.045816   0.000000
      6          8.848474   0.000000
      7          8.848474   0.000000
      8         13.259134   0.000000
 
  0.4761905E+00  0.6840132E-18 -0.4884297E-14  0.8638376E-03
      1         -4.198559   1.000000
      2         -1.459305   1.000000
      3          4.270793   1.000000
      4          4.270794   1.000000
      5          7.008435   0.000000
      6          8.812422   0.000000
      7          8.812422   0.000000
      8         13.204236   0.000000
 
  0.4761905E-01  0.4761905E-01  0.7414369E-17  0.6478782E-03
      1         -6.458363   1.000000
      2          5.209610   1.000000
      3          5.304689   1.000000
      4          5.304689   1.000000
      5          7.934555   0.000000
      6          8.240065   0.000000
      7          8.240065   0.000000
      8          9.079460   0.000000
 
  0.9523810E-01  0.4761905E-01 -0.4416140E-14  0.2591513E-02
      1         -6.389047   1.000000
      2          4.624685   1.000000
      3          5.131765   1.000000
      4          5.257001   1.000000
      5          7.926699   0.000000
      6          8.346051   0.000000
      7          8.480911   0.000000
      8          9.530065   0.000000
 
  0.1428571E+00  0.4761905E-01 -0.5234429E-14  0.2591513E-02
      1         -6.261020   1.000000
      2          3.805187   1.000000
      3          4.934538   1.000000
      4          5.141783   1.000000
      5          7.999123   0.000000
      6          8.344584   0.000000
      7          8.767568   0.000000
      8         10.246487   0.000000
 
  0.1904762E+00  0.4761905E-01  0.1022603E-14  0.2591513E-02
      1         -6.075733   1.000000
      2          2.924166   1.000000
      3          4.740581   1.000000
      4          4.970980   1.000000
      5          7.940200   0.000000
      6          8.475260   0.000000
      7          9.034069   0.000000
      8         10.951971   0.000000
 
  0.2380952E+00  0.4761905E-01  0.2005925E-15  0.2591513E-02
      1         -5.835728   1.000000
      2          2.042439   1.000000
      3          4.566441   1.000000
      4          4.781056   1.000000
      5          7.787772   0.000000
      6          8.662000   0.000000
      7          9.216730   0.000000
      8         11.442565   0.000000
 
  0.2857143E+00  0.4761905E-01 -0.4253963E-14  0.2591513E-02
      1         -5.545450   1.000000
      2          1.190867   1.000000
      3          4.421337   1.000000
      4          4.595027   1.000000
      5          7.626177   0.000000
      6          8.778747   0.000000
      7          9.281049   0.000000
      8         11.815315   0.000000
 
  0.3333333E+00  0.4761905E-01 -0.5084890E-14  0.2591513E-02
      1         -5.212950   1.000000
      2          0.391303   1.000000
      3          4.310085   1.000000
      4          4.425806   1.000000
      5          7.481499   0.000000
      6          8.806577   0.000000
      7          9.243688   0.000000
      8         12.283932   0.000000
 
  0.3809524E+00  0.4761905E-01  0.1190478E-14  0.2591513E-02
      1         -4.853941   1.000000
      2         -0.332624   1.000000
      3          4.234855   1.000000
      4          4.280558   1.000000
      5          7.364223   0.000000
      6          8.784005   0.000000
      7          9.151225   0.000000
      8         12.834401   0.000000
 
  0.4285714E+00  0.4761905E-01  0.3734295E-15  0.2591513E-02
      1         -4.501587   1.000000
      2         -0.942991   1.000000
      3          4.163497   1.000000
      4          4.196194   1.000000
      5          7.279463   0.000000
      6          8.755082   0.000000
      7          9.046947   0.000000
      8         13.223945   0.000000
 
  0.4761905E+00  0.4761905E-01 -0.4057326E-14  0.2591513E-02
      1         -4.226742   1.000000
      2         -1.366110   1.000000
      3          4.077394   1.000000
      4          4.193604   1.000000
      5          7.229821   0.000000
      6          8.748319   0.000000
      7          8.959235   0.000000
      8         13.303514   0.000000
 
 -0.4761905E+00  0.4761905E-01 -0.4912594E-14  0.2591513E-02
      1         -4.143536   1.000000
      2         -1.486423   1.000000
      3          4.024341   1.000000
      4          4.225943   1.000000
      5          7.216518   0.000000
      6          8.777250   0.000000
      7          8.903057   0.000000
      8         13.313769   0.000000
 
 -0.4285714E+00  0.4761905E-01  0.1353857E-14  0.2591513E-02
      1         -4.303299   1.000000
      2         -1.252255   1.000000
      3          4.006067   1.000000
      4          4.291593   1.000000
      5          7.239909   0.000000
      6          8.844161   0.000000
      7          8.882770   0.000000
      8         13.333691   0.000000
 
 -0.3809524E+00  0.4761905E-01  0.4436193E-15  0.2591513E-02
      1         -4.615227   1.000000
      2         -0.755124   1.000000
      3          4.024014   1.000000
      4          4.388589   1.000000
      5          7.299624   0.000000
      6          8.892686   0.000000
      7          8.941399   0.000000
      8         13.319509   0.000000
 
 -0.3333333E+00  0.4761905E-01 -0.3931625E-14  0.2591513E-02
      1         -4.975281   1.000000
      2         -0.100957   1.000000
      3          4.079212   1.000000
      4          4.514449   1.000000
      5          7.394439   0.000000
      6          8.914986   0.000000
      7          9.049557   0.000000
      8         13.090122   0.000000
 
 -0.2857143E+00  0.4761905E-01 -0.4795268E-14  0.2591513E-02
      1         -5.327948   1.000000
      2          0.651272   1.000000
      3          4.172064   1.000000
      4          4.665758   1.000000
      5          7.521803   0.000000
      6          8.916696   0.000000
      7          9.133291   0.000000
      8         12.604734   0.000000
 
 -0.2380952E+00  0.4761905E-01  0.1471183E-14  0.2591513E-02
      1         -5.647585   1.000000
      2          1.470080   1.000000
      3          4.301991   1.000000
      4          4.837224   1.000000
      5          7.676894   0.000000
      6          8.854070   0.000000
      7          9.140783   0.000000
      8         12.062923   0.000000
 
 -0.1904762E+00  0.4761905E-01  0.6352954E-15  0.2591513E-02
      1         -5.921735   1.000000
      2          2.332967   1.000000
      3          4.466925   1.000000
      4          5.019942   1.000000
      5          7.850813   0.000000
      6          8.699650   0.000000
      7          9.024907   0.000000
      8         11.481192   0.000000
 
 -0.1428571E+00  0.4761905E-01 -0.3772666E-14  0.2591513E-02
      1         -6.143842   1.000000
      2          3.214666   1.000000
      3          4.662809   1.000000
      4          5.198449   1.000000
      5          8.026926   0.000000
      6          8.477183   0.000000
      7          8.787492   0.000000
      8         10.795930   0.000000
 
 -0.9523810E-01  0.4761905E-01 -0.4604095E-14  0.2591513E-02
      1         -6.310226   1.000000
      2          4.070567   1.000000
      3          4.884648   1.000000
      4          5.346948   1.000000
      5          8.171610   0.000000
      6          8.255277   0.000000
      7          8.490241   0.000000
      8         10.052822   0.000000
 
 -0.4761905E-01  0.4761905E-01  0.1657898E-14  0.1295756E-02
      1         -6.418765   1.000000
      2          4.783680   1.000000
      3          5.143905   1.000000
      4          5.429411   1.000000
      5          8.112147   0.000000
      6          8.181220   0.000000
      7          8.258652   0.000000
      8          9.396566   0.000000
 
  0.9523810E-01  0.9523810E-01 -0.8798197E-17  0.6478782E-03
      1         -6.339440   1.000000
      2          4.598872   1.000000
      3          4.931436   1.000000
      4          4.931436   1.000000
      5          7.682532   0.000000
      6          8.759038   0.000000
      7          8.759039   0.000000
      8          9.607472   0.000000
 
  0.1428571E+00  0.9523810E-01 -0.8430783E-15  0.2591513E-02
      1         -6.230919   1.000000
      2          3.975301   1.000000
      3          4.717789   1.000000
      4          4.828901   1.000000
      5          7.631275   0.000000
      6          8.879356   0.000000
      7          9.079634   0.000000
      8         10.043117   0.000000
 
  0.1904762E+00  0.9523810E-01 -0.5229971E-14  0.2591513E-02
      1         -6.064648   1.000000
      2          3.163315   1.000000
      3          4.515057   1.000000
      4          4.695644   1.000000
      5          7.729831   0.000000
      6          8.823812   0.000000
      7          9.383136   0.000000
      8         10.460887   0.000000
 
  0.2380952E+00  0.9523810E-01  0.4585256E-14  0.2591513E-02
      1         -5.842726   1.000000
      2          2.312821   1.000000
      3          4.337812   1.000000
      4          4.505079   1.000000
      5          7.844176   0.000000
      6          8.786712   0.000000
      7          9.606081   0.000000
      8         10.632200   0.000000
 
  0.2857143E+00  0.9523810E-01  0.1539979E-15  0.2591513E-02
      1         -5.568800   1.000000
      2          1.471536   1.000000
      3          4.194388   1.000000
      4          4.293597   1.000000
      5          7.863859   0.000000
      6          8.808105   0.000000
      7          9.703327   0.000000
      8         10.805224   0.000000
 
  0.3333333E+00  0.9523810E-01 -0.6303341E-15  0.2591513E-02
      1         -5.249362   1.000000
      2          0.667651   1.000000
      3          4.085904   1.000000
      4          4.089298   1.000000
      5          7.802018   0.000000
      6          8.822207   0.000000
      7          9.678963   0.000000
      8         11.164614   0.000000
 
  0.3809524E+00  0.9523810E-01 -0.5112645E-14  0.2591513E-02
      1         -4.896763   1.000000
      2         -0.074391   1.000000
      3          3.895991   1.000000
      4          4.024656   1.000000
      5          7.717907   0.000000
      6          8.799093   0.000000
      7          9.577209   0.000000
      8         11.715295   0.000000
 
  0.4285714E+00  0.9523810E-01  0.4767513E-14  0.2591513E-02
      1         -4.536507   1.000000
      2         -0.721972   1.000000
      3          3.731990   1.000000
      4          4.000990   1.000000
      5          7.646281   0.000000
      6          8.767035   0.000000
      7          9.446160   0.000000
      8         12.384205   0.000000
 
  0.4761905E+00  0.9523810E-01  0.4011851E-15  0.2591513E-02
      1         -4.224062   1.000000
      2         -1.215392   1.000000
      3          3.599143   1.000000
      4          4.017666   1.000000
      5          7.602386   0.000000
      6          8.755152   0.000000
      7          9.319668   0.000000
      8         13.055795   0.000000
 
 -0.4761905E+00  0.9523810E-01 -0.5095944E-15  0.2591513E-02
      1         -4.064218   1.000000
      2         -1.447568   1.000000
      3          3.501298   1.000000
      4          4.073137   1.000000
      5          7.592202   0.000000
      6          8.779170   0.000000
      7          9.217042   0.000000
      8         13.494585   0.000000
 
 -0.4285714E+00  0.9523810E-01 -0.4930427E-14  0.2591513E-02
      1         -4.148708   1.000000
      2         -1.325949   1.000000
      3          3.441552   1.000000
      4          4.165027   1.000000
      5          7.617200   0.000000
      6          8.844257   0.000000
      7          9.146318   0.000000
      8         13.583694   0.000000
 
 -0.3809524E+00  0.9523810E-01  0.4967564E-14  0.2591513E-02
      1         -4.424877   1.000000
      2         -0.903723   1.000000
      3          3.422552   1.000000
      4          4.290122   1.000000
      5          7.676550   0.000000
      6          8.946676   0.000000
      7          9.105522   0.000000
      8         13.394831   0.000000
 
 -0.3333333E+00  0.9523810E-01  0.5090531E-15  0.2591513E-02
      1         -4.777682   1.000000
      2         -0.297972   1.000000
      3          3.446648   1.000000
      4          4.444157   1.000000
      5          7.768142   0.000000
      6          9.071675   0.000000
      7          9.080995   0.000000
      8         12.919733   0.000000
 
 -0.2857143E+00  0.9523810E-01 -0.3734295E-15  0.2591513E-02
      1         -5.136508   1.000000
      2          0.416533   1.000000
      3          3.516088   1.000000
      4          4.621323   1.000000
      5          7.888721   0.000000
      6          9.043926   0.000000
      7          9.186899   0.000000
      8         12.332382   0.000000
 
 -0.2380952E+00  0.9523810E-01 -0.4795268E-14  0.2591513E-02
      1         -5.468540   1.000000
      2          1.199272   1.000000
      3          3.633565   1.000000
      4          4.813228   1.000000
      5          8.033069   0.000000
      6          8.953123   0.000000
      7          9.232916   0.000000
      8         11.796365   0.000000
 
 -0.1904762E+00  0.9523810E-01  0.5075973E-14  0.2591513E-02
      1         -5.758271   1.000000
      2          2.019687   1.000000
      3          3.804061   1.000000
      4          5.006884   1.000000
      5          8.191903   0.000000
      6          8.782071   0.000000
      7          9.133514   0.000000
      8         11.381302   0.000000
 
 -0.1428571E+00  0.9523810E-01  0.6352954E-15  0.2591513E-02
      1         -5.997748   1.000000
      2          2.836252   1.000000
      3          4.041840   1.000000
      4          5.181694   1.000000
      5          8.347050   0.000000
      6          8.558277   0.000000
      7          8.867029   0.000000
      8         11.022952   0.000000
 
 -0.9523810E-01  0.9523810E-01 -0.1916761E-15  0.1295756E-02
      1         -6.182578   1.000000
      2          3.560716   1.000000
      3          4.391478   1.000000
      4          5.306888   1.000000
      5          8.356545   0.000000
      6          8.437514   0.000000
      7          8.537325   0.000000
      8         10.570335   0.000000
 
  0.1428571E+00  0.1428571E+00  0.1567738E-16  0.6478782E-03
      1         -6.141862   1.000000
      2          3.834845   1.000000
      3          4.492045   1.000000
      4          4.492045   1.000000
      5          7.348393   0.000000
      6          9.438636   0.000000
      7          9.438636   0.000000
      8          9.900833   0.000000
 
  0.1904762E+00  0.1428571E+00 -0.4400771E-14  0.2591513E-02
      1         -5.994756   1.000000
      2          3.249569   1.000000
      3          4.280301   1.000000
      4          4.328190   1.000000
      5          7.286138   0.000000
      6          9.496551   0.000000
      7          9.789760   0.000000
      8         10.022448   0.000000
 
  0.2380952E+00  0.1428571E+00 -0.5211635E-14  0.2591513E-02
      1         -5.791296   1.000000
      2          2.497965   1.000000
      3          4.096597   1.000000
      4          4.142252   1.000000
      5          7.395711   0.000000
      6          9.391821   0.000000
      7         10.060542   0.000000
      8         10.069866   0.000000
 
  0.2857143E+00  0.1428571E+00  0.1045900E-14  0.2591513E-02
      1         -5.534474   1.000000
      2          1.707180   1.000000
      3          3.910538   1.000000
      4          3.949170   1.000000
      5          7.543350   0.000000
      6          9.382309   0.000000
      7         10.025622   0.000000
      8         10.222304   0.000000
 
  0.3333333E+00  0.1428571E+00  0.2005925E-15  0.2591513E-02
      1         -5.229555   1.000000
      2          0.925846   1.000000
      3          3.665752   1.000000
      4          3.842672   1.000000
      5          7.621419   0.000000
      6          9.418642   0.000000
      7         10.154741   0.000000
      8         10.233826   0.000000
 
  0.3809524E+00  0.1428571E+00 -0.4169690E-14  0.2591513E-02
      1         -4.886250   1.000000
      2          0.185580   1.000000
      3          3.431522   1.000000
      4          3.779485   1.000000
      5          7.626694   0.000000
      6          9.374375   0.000000
      7         10.142505   0.000000
      8         10.597150   0.000000
 
  0.4285714E+00  0.1428571E+00 -0.5084890E-14  0.2591513E-02
      1         -4.524184   1.000000
      2         -0.481585   1.000000
      3          3.221418   1.000000
      4          3.760410   1.000000
      5          7.609570   0.000000
      6          9.295796   0.000000
      7         10.001235   0.000000
      8         11.255356   0.000000
 
  0.4761905E+00  0.1428571E+00  0.1293590E-14  0.2591513E-02
      1         -4.186020   1.000000
      2         -1.025680   1.000000
      3          3.043635   1.000000
      4          3.785076   1.000000
      5          7.608153   0.000000
      6          9.231152   0.000000
      7          9.850403   0.000000
      8         12.031549   0.000000
 
 -0.4761905E+00  0.1428571E+00  0.3173770E-15  0.2591513E-02
      1         -3.960936   1.000000
      2         -1.353470   1.000000
      3          2.903771   1.000000
      4          3.852059   1.000000
      5          7.640302   0.000000
      6          9.197805   0.000000
      7          9.714095   0.000000
      8         12.863094   0.000000
 
 -0.4285714E+00  0.1428571E+00 -0.4085623E-14  0.2591513E-02
      1         -3.963803   1.000000
      2         -1.348375   1.000000
      3          2.806204   1.000000
      4          3.958913   1.000000
      5          7.711395   0.000000
      6          9.202251   0.000000
      7          9.603634   0.000000
      8         13.646414   0.000000
 
 -0.3809524E+00  0.1428571E+00 -0.4930427E-14  0.2591513E-02
      1         -4.192549   1.000000
      2         -1.012828   1.000000
      3          2.754879   1.000000
      4          4.102002   1.000000
      5          7.819611   0.000000
      6          9.245205   0.000000
      7          9.519592   0.000000
      8         13.479131   0.000000
 
 -0.3333333E+00  0.1428571E+00  0.1270591E-14  0.2591513E-02
      1         -4.531636   1.000000
      2         -0.465244   1.000000
      3          2.753983   1.000000
      4          4.276138   1.000000
      5          7.958612   0.000000
      6          9.319466   0.000000
      7          9.450344   0.000000
      8         12.805763   0.000000
 
 -0.2857143E+00  0.1428571E+00  0.4535419E-15  0.2591513E-02
      1         -4.893296   1.000000
      2          0.199936   1.000000
      3          2.809193   1.000000
      4          4.473888   1.000000
      5          8.118949   0.000000
      6          9.367915   0.000000
      7          9.400720   0.000000
      8         12.128591   0.000000
 
 -0.2380952E+00  0.1428571E+00 -0.3921702E-14  0.2591513E-02
      1         -5.235704   1.000000
      2          0.926488   1.000000
      3          2.930804   1.000000
      4          4.684271   1.000000
      5          8.287952   0.000000
      6          9.230466   0.000000
      7          9.427799   0.000000
      8         11.563795   0.000000
 
 -0.1904762E+00  0.1428571E+00 -0.4748674E-14  0.2591513E-02
      1         -5.539582   1.000000
      2          1.662685   1.000000
      3          3.142512   1.000000
      4          4.890657   1.000000
      5          8.444871   0.000000
      6          9.015224   0.000000
      7          9.300874   0.000000
      8         11.222402   0.000000
 
 -0.1428571E+00  0.1428571E+00  0.1517778E-14  0.1295756E-02
      1         -5.795333   1.000000
      2          2.327960   1.000000
      3          3.497874   1.000000
      4          5.067887   1.000000
      5          8.529051   0.000000
      6          8.762858   0.000000
      7          9.023521   0.000000
      8         11.106062   0.000000
 
  0.1904762E+00  0.1904762E+00 -0.1759639E-16  0.6478782E-03
      1         -5.866693   1.000000
      2          3.010304   1.000000
      3          4.059639   1.000000
      4          4.059639   1.000000
      5          6.996815   0.000000
      6          9.490431   0.000000
      7         10.202485   0.000000
      8         10.202485   0.000000
 
  0.2380952E+00  0.1904762E+00 -0.8289490E-15  0.2591513E-02
      1         -5.681844   1.000000
      2          2.472371   1.000000
      3          3.853970   1.000000
      4          3.867482   1.000000
      5          6.945644   0.000000
      6          9.197998   0.000000
      7         10.458335   0.000000
      8         10.559377   0.000000
 
  0.2857143E+00  0.1904762E+00 -0.5246330E-14  0.2591513E-02
      1         -5.442635   1.000000
      2          1.804992   1.000000
      3          3.600435   1.000000
      4          3.712464   1.000000
      5          7.070630   0.000000
      6          9.054018   0.000000
      7         10.474988   0.000000
      8         10.792974   0.000000
 
  0.3333333E+00  0.1904762E+00  0.4590218E-14  0.2591513E-02
      1         -5.153307   1.000000
      2          1.096832   1.000000
      3          3.311041   1.000000
      4          3.599627   1.000000
      5          7.221413   0.000000
      6          9.154023   0.000000
      7         10.384492   0.000000
      8         10.867372   0.000000
 
  0.3809524E+00  0.1904762E+00  0.1678756E-15  0.2591513E-02
      1         -4.821542   1.000000
      2          0.394973   1.000000
      3          3.022073   1.000000
      4          3.531714   1.000000
      5          7.298350   0.000000
      6          9.538566   0.000000
      7         10.263458   0.000000
      8         10.808286   0.000000
 
  0.4285714E+00  0.1904762E+00 -0.6630509E-15  0.2591513E-02
      1         -4.462441   1.000000
      2         -0.263145   1.000000
      3          2.756463   1.000000
      4          3.509893   1.000000
      5          7.321654   0.000000
      6         10.112291   0.000000
      7         10.182831   0.000000
      8         10.673151   0.000000
 
  0.4761905E+00  0.1904762E+00 -0.4991700E-14  0.2591513E-02
      1         -4.108487   1.000000
      2         -0.831647   1.000000
      3          2.526716   1.000000
      4          3.534122   1.000000
      5          7.345117   0.000000
      6         10.040199   0.000000
      7         10.511042   0.000000
      8         10.914931   0.000000
 
 -0.4761905E+00  0.1904762E+00  0.4664866E-14  0.2591513E-02
      1         -3.831813   1.000000
      2         -1.230677   1.000000
      3          2.340402   1.000000
      4          3.603294   1.000000
      5          7.400012   0.000000
      6          9.966775   0.000000
      7         10.352285   0.000000
      8         11.771764   0.000000
 
 -0.4285714E+00  0.1904762E+00  0.1309983E-15  0.2591513E-02
      1         -3.753200   1.000000
      2         -1.335870   1.000000
      3          2.203218   1.000000
      4          3.715186   1.000000
      5          7.498301   0.000000
      6          9.923918   0.000000
      7         10.211741   0.000000
      8         12.689980   0.000000
 
 -0.3809524E+00  0.1904762E+00 -0.5274274E-15  0.2591513E-02
      1         -3.923777   1.000000
      2         -1.096294   1.000000
      3          2.120800   1.000000
      4          3.866239   1.000000
      5          7.641246   0.000000
      6          9.912649   0.000000
      7         10.091501   0.000000
      8         13.476814   0.000000
 
 -0.3333333E+00  0.1904762E+00 -0.4874916E-14  0.2591513E-02
      1         -4.242144   1.000000
      2         -0.618341   1.000000
      3          2.100649   1.000000
      4          4.051083   1.000000
      5          7.823107   0.000000
      6          9.927133   0.000000
      7          9.978975   0.000000
      8         12.725052   0.000000
 
 -0.2857143E+00  0.1904762E+00  0.4828786E-14  0.2591513E-02
      1         -4.602826   1.000000
      2         -0.020708   1.000000
      3          2.155875   1.000000
      4          4.261679   1.000000
      5          8.031406   0.000000
      6          9.840716   0.000000
      7          9.943606   0.000000
      8         11.993214   0.000000
 
 -0.2380952E+00  0.1904762E+00  0.5189757E-15  0.2591513E-02
      1         -4.953071   1.000000
      2          0.613273   1.000000
      3          2.313723   1.000000
      4          4.485806   1.000000
      5          8.243946   0.000000
      6          9.627773   0.000000
      7          9.887418   0.000000
      8         11.424124   0.000000
 
 -0.1904762E+00  0.1904762E+00 -0.3734295E-15  0.1295756E-02
      1         -5.269147   1.000000
      2          1.199081   1.000000
      3          2.627144   1.000000
      4          4.704763   1.000000
      5          8.417385   0.000000
      6          9.329280   0.000000
      7          9.639271   0.000000
      8         11.174910   0.000000
 
  0.2380952E+00  0.2380952E+00  0.3042806E-16  0.6478782E-03
      1         -5.515428   1.000000
      2          2.161661   1.000000
      3          3.665911   1.000000
      4          3.665911   1.000000
      5          6.670892   0.000000
      6          8.782233   0.000000
      7         11.015858   0.000000
      8         11.015858   0.000000
 
  0.2857143E+00  0.2380952E+00 -0.4370786E-14  0.2591513E-02
      1         -5.294019   1.000000
      2          1.662727   1.000000
      3          3.440319   1.000000
      4          3.501253   1.000000
      5          6.643884   0.000000
      6          8.493712   0.000000
      7         11.270110   0.000000
      8         11.363960   0.000000
 
  0.3333333E+00  0.2380952E+00 -0.5225010E-14  0.2591513E-02
      1         -5.020997   1.000000
      2          1.078793   1.000000
      3          3.126783   1.000000
      4          3.379103   1.000000
      5          6.785516   0.000000
      6          8.407074   0.000000
      7         11.291966   0.000000
      8         11.538889   0.000000
 
  0.3809524E+00  0.2380952E+00  0.1045397E-14  0.2591513E-02
      1         -4.702446   1.000000
      2          0.464735   1.000000
      3          2.775673   1.000000
      4          3.302637   1.000000
      5          6.926638   0.000000
      6          8.608979   0.000000
      7         11.214223   0.000000
      8         11.541630   0.000000
 