       N       E                     dE             d eps       ncg     rms          rms(c)
DAV:   1    -0.108412019119E+02   -0.10841E+02   -0.14866E-11  3416   0.499E-05    0.516E-07
DAV:   2    -0.108412019119E+02    0.22538E-10   -0.76795E-12  3376   0.275E-05
   1 F= -.10841202E+02 E0= -.10841202E+02  d E =-.126435E-13
