<?xml version="1.0" encoding="ISO-8859-1"?>
<modeling>
 <generator>
  <i name="program" type="string">vasp </i>
  <i name="version" type="string">6.3.2  </i>
  <i name="subversion" type="string">27Jun22 (build Dec 02 2024 22:47:12) complex                          parallel </i>
  <i name="platform" type="string">LinuxIFC </i>
  <i name="date" type="string">2024 12 20 </i>
  <i name="time" type="string">11:36:15 </i>
 </generator>
 <incar>
  <i type="string" name="SYSTEM">Silicon DFT Groundstate Calculation</i>
  <i type="int" name="IBRION">    -1</i>
  <i name="EDIFF">      0.00000001</i>
  <i type="int" name="NSW">     0</i>
  <i name="ENCUT">    520.00000000</i>
  <i type="string" name="LREAL">AutoLREAL = .FALSE.</i>
  <i type="int" name="ISMEAR">     0</i>
  <i name="SIGMA">      0.05000000</i>
  <i name="KSPACING">      0.10000000</i>
 </incar>
 <primitive_cell>
  <structure name="primitive_cell" >
   <crystal>
    <varray name="basis" >
     <v>       2.71500000       2.71500000       0.00000000 </v>
     <v>       0.00000000       2.71500000       2.71500000 </v>
     <v>       2.71500000       0.00000000       2.71500000 </v>
    </varray>
    <i name="volume">     40.02575175 </i>
    <varray name="rec_basis" >
     <v>       0.18416206       0.18416206      -0.18416206 </v>
     <v>      -0.18416206       0.18416206       0.18416206 </v>
     <v>       0.18416206      -0.18416206       0.18416206 </v>
    </varray>
   </crystal>
   <varray name="positions" >
    <v>       0.00000000       0.00000000       0.00000000 </v>
    <v>       0.25000000       0.25000000       0.25000000 </v>
   </varray>
  </structure>
  <varray name="primitive_index" >
   <v type="int" >        1 </v>
   <v type="int" >        2 </v>
  </varray>
 </primitive_cell>
 <kpoints>
  <generation param="Gamma">
   <v type="int" name="divisions">      21       21       21 </v>
   <v name="usershift">      0.00000000       0.00000000       0.00000000 </v>
   <v name="genvec1">      0.04761905       0.00000000       0.00000000 </v>
   <v name="genvec2">      0.00000000       0.04761905      -0.00000000 </v>
   <v name="genvec3">     -0.00000000      -0.00000000       0.04761905 </v>
   <v name="shift">      0.00000000       0.00000000       0.00000000 </v>
  </generation>
  <varray name="kpointlist" >
   <v>       0.00000000       0.00000000       0.00000000 </v>
   <v>       0.04761905      -0.00000000      -0.00000000 </v>
   <v>       0.09523810       0.00000000      -0.00000000 </v>
   <v>       0.14285714       0.00000000       0.00000000 </v>
   <v>       0.19047619       0.00000000       0.00000000 </v>
   <v>       0.23809524      -0.00000000      -0.00000000 </v>
   <v>       0.28571429       0.00000000      -0.00000000 </v>
   <v>       0.33333333       0.00000000       0.00000000 </v>
   <v>       0.38095238       0.00000000       0.00000000 </v>
   <v>       0.42857143      -0.00000000      -0.00000000 </v>
   <v>       0.47619048       0.00000000      -0.00000000 </v>
   <v>       0.04761905       0.04761905       0.00000000 </v>
   <v>       0.09523810       0.04761905      -0.00000000 </v>
   <v>       0.14285714       0.04761905      -0.00000000 </v>
   <v>       0.19047619       0.04761905       0.00000000 </v>
   <v>       0.23809524       0.04761905       0.00000000 </v>
   <v>       0.28571429       0.04761905      -0.00000000 </v>
   <v>       0.33333333       0.04761905      -0.00000000 </v>
   <v>       0.38095238       0.04761905       0.00000000 </v>
   <v>       0.42857143       0.04761905       0.00000000 </v>
   <v>       0.47619048       0.04761905      -0.00000000 </v>
   <v>      -0.47619048       0.04761905      -0.00000000 </v>
   <v>      -0.42857143       0.04761905       0.00000000 </v>
   <v>      -0.38095238       0.04761905       0.00000000 </v>
   <v>      -0.33333333       0.04761905      -0.00000000 </v>
   <v>      -0.28571429       0.04761905      -0.00000000 </v>
   <v>      -0.23809524       0.04761905       0.00000000 </v>
   <v>      -0.19047619       0.04761905       0.00000000 </v>
   <v>      -0.14285714       0.04761905      -0.00000000 </v>
   <v>      -0.09523810       0.04761905      -0.00000000 </v>
   <v>      -0.04761905       0.04761905       0.00000000 </v>
   <v>       0.09523810       0.09523810      -0.00000000 </v>
   <v>       0.14285714       0.09523810      -0.00000000 </v>
   <v>       0.19047619       0.09523810      -0.00000000 </v>
   <v>       0.23809524       0.09523810       0.00000000 </v>
   <v>       0.28571429       0.09523810       0.00000000 </v>
   <v>       0.33333333       0.09523810      -0.00000000 </v>
   <v>       0.38095238       0.09523810      -0.00000000 </v>
   <v>       0.42857143       0.09523810       0.00000000 </v>
   <v>       0.47619048       0.09523810       0.00000000 </v>
   <v>      -0.47619048       0.09523810      -0.00000000 </v>
   <v>      -0.42857143       0.09523810      -0.00000000 </v>
   <v>      -0.38095238       0.09523810       0.00000000 </v>
   <v>      -0.33333333       0.09523810       0.00000000 </v>
   <v>      -0.28571429       0.09523810      -0.00000000 </v>
   <v>      -0.23809524       0.09523810      -0.00000000 </v>
   <v>      -0.19047619       0.09523810       0.00000000 </v>
   <v>      -0.14285714       0.09523810       0.00000000 </v>
   <v>      -0.09523810       0.09523810      -0.00000000 </v>
   <v>       0.14285714       0.14285714       0.00000000 </v>
   <v>       0.19047619       0.14285714      -0.00000000 </v>
   <v>       0.23809524       0.14285714      -0.00000000 </v>
   <v>       0.28571429       0.14285714       0.00000000 </v>
   <v>       0.33333333       0.14285714       0.00000000 </v>
   <v>       0.38095238       0.14285714      -0.00000000 </v>
   <v>       0.42857143       0.14285714      -0.00000000 </v>
   <v>       0.47619048       0.14285714       0.00000000 </v>
   <v>      -0.47619048       0.14285714       0.00000000 </v>
   <v>      -0.42857143       0.14285714      -0.00000000 </v>
   <v>      -0.38095238       0.14285714      -0.00000000 </v>
   <v>      -0.33333333       0.14285714       0.00000000 </v>
   <v>      -0.28571429       0.14285714       0.00000000 </v>
   <v>      -0.23809524       0.14285714      -0.00000000 </v>
   <v>      -0.19047619       0.14285714      -0.00000000 </v>
   <v>      -0.14285714       0.14285714       0.00000000 </v>
   <v>       0.19047619       0.19047619      -0.00000000 </v>
   <v>       0.23809524       0.19047619      -0.00000000 </v>
   <v>       0.28571429       0.19047619      -0.00000000 </v>
   <v>       0.33333333       0.19047619       0.00000000 </v>
   <v>       0.38095238       0.19047619       0.00000000 </v>
   <v>       0.42857143       0.19047619      -0.00000000 </v>
   <v>       0.47619048       0.19047619      -0.00000000 </v>
   <v>      -0.47619048       0.19047619       0.00000000 </v>
   <v>      -0.42857143       0.19047619       0.00000000 </v>
   <v>      -0.38095238       0.19047619      -0.00000000 </v>
   <v>      -0.33333333       0.19047619      -0.00000000 </v>
   <v>      -0.28571429       0.19047619       0.00000000 </v>
   <v>      -0.23809524       0.19047619       0.00000000 </v>
   <v>      -0.19047619       0.19047619      -0.00000000 </v>
   <v>       0.23809524       0.23809524       0.00000000 </v>
   <v>       0.28571429       0.23809524      -0.00000000 </v>
   <v>       0.33333333       0.23809524      -0.00000000 </v>
   <v>       0.38095238       0.23809524       0.00000000 </v>
   <v>       0.42857143       0.23809524       0.00000000 </v>
   <v>       0.47619048       0.23809524      -0.00000000 </v>
   <v>      -0.47619048       0.23809524      -0.00000000 </v>
   <v>      -0.42857143       0.23809524       0.00000000 </v>
   <v>      -0.38095238       0.23809524       0.00000000 </v>
   <v>      -0.33333333       0.23809524      -0.00000000 </v>
   <v>      -0.28571429       0.23809524      -0.00000000 </v>
   <v>      -0.23809524       0.23809524       0.00000000 </v>
   <v>       0.28571429       0.28571429       0.00000000 </v>
   <v>       0.33333333       0.28571429      -0.00000000 </v>
   <v>       0.38095238       0.28571429      -0.00000000 </v>
   <v>       0.42857143       0.28571429       0.00000000 </v>
   <v>       0.47619048       0.28571429       0.00000000 </v>
   <v>      -0.47619048       0.28571429      -0.00000000 </v>
   <v>      -0.42857143       0.28571429      -0.00000000 </v>
   <v>      -0.38095238       0.28571429       0.00000000 </v>
   <v>      -0.33333333       0.28571429       0.00000000 </v>
   <v>      -0.28571429       0.28571429      -0.00000000 </v>
   <v>       0.33333333       0.33333333       0.00000000 </v>
   <v>       0.38095238       0.33333333      -0.00000000 </v>
   <v>       0.42857143       0.33333333      -0.00000000 </v>
   <v>       0.47619048       0.33333333       0.00000000 </v>
   <v>      -0.47619048       0.33333333       0.00000000 </v>
   <v>      -0.42857143       0.33333333      -0.00000000 </v>
   <v>      -0.38095238       0.33333333      -0.00000000 </v>
   <v>      -0.33333333       0.33333333       0.00000000 </v>
   <v>       0.38095238       0.38095238      -0.00000000 </v>
   <v>       0.42857143       0.38095238      -0.00000000 </v>
   <v>       0.47619048       0.38095238      -0.00000000 </v>
   <v>      -0.47619048       0.38095238       0.00000000 </v>
   <v>      -0.42857143       0.38095238       0.00000000 </v>
   <v>      -0.38095238       0.38095238      -0.00000000 </v>
   <v>       0.42857143       0.42857143       0.00000000 </v>
   <v>       0.47619048       0.42857143      -0.00000000 </v>
   <v>      -0.47619048       0.42857143      -0.00000000 </v>
   <v>      -0.42857143       0.42857143       0.00000000 </v>
   <v>       0.47619048       0.47619048       0.00000000 </v>
   <v>      -0.47619048       0.47619048      -0.00000000 </v>
   <v>       0.14285714       0.09523810       0.04761905 </v>
   <v>       0.19047619       0.09523810       0.04761905 </v>
   <v>       0.23809524       0.09523810       0.04761905 </v>
   <v>       0.28571429       0.09523810       0.04761905 </v>
   <v>       0.33333333       0.09523810       0.04761905 </v>
   <v>       0.38095238       0.09523810       0.04761905 </v>
   <v>       0.42857143       0.09523810       0.04761905 </v>
   <v>       0.47619048       0.09523810       0.04761905 </v>
   <v>      -0.47619048       0.09523810       0.04761905 </v>
   <v>       0.19047619       0.14285714       0.04761905 </v>
   <v>       0.23809524       0.14285714       0.04761905 </v>
   <v>       0.28571429       0.14285714       0.04761905 </v>
   <v>       0.33333333       0.14285714       0.04761905 </v>
   <v>       0.38095238       0.14285714       0.04761905 </v>
   <v>       0.42857143       0.14285714       0.04761905 </v>
   <v>       0.47619048       0.14285714       0.04761905 </v>
   <v>      -0.47619048       0.14285714       0.04761905 </v>
   <v>      -0.42857143       0.14285714       0.04761905 </v>
   <v>      -0.38095238       0.14285714       0.04761905 </v>
   <v>      -0.33333333       0.14285714       0.04761905 </v>
   <v>      -0.28571429       0.14285714       0.04761905 </v>
   <v>      -0.23809524       0.14285714       0.04761905 </v>
   <v>      -0.19047619       0.14285714       0.04761905 </v>
   <v>      -0.14285714       0.14285714       0.04761905 </v>
   <v>      -0.09523810       0.14285714       0.04761905 </v>
   <v>       0.23809524       0.19047619       0.04761905 </v>
   <v>       0.28571429       0.19047619       0.04761905 </v>
   <v>       0.33333333       0.19047619       0.04761905 </v>
   <v>       0.38095238       0.19047619       0.04761905 </v>
   <v>       0.42857143       0.19047619       0.04761905 </v>
   <v>       0.47619048       0.19047619       0.04761905 </v>
   <v>      -0.47619048       0.19047619       0.04761905 </v>
   <v>      -0.42857143       0.19047619       0.04761905 </v>
   <v>      -0.38095238       0.19047619       0.04761905 </v>
   <v>      -0.33333333       0.19047619       0.04761905 </v>
   <v>      -0.28571429       0.19047619       0.04761905 </v>
   <v>      -0.23809524       0.19047619       0.04761905 </v>
   <v>      -0.19047619       0.19047619       0.04761905 </v>
   <v>      -0.14285714       0.19047619       0.04761905 </v>
   <v>       0.28571429       0.23809524       0.04761905 </v>
   <v>       0.33333333       0.23809524       0.04761905 </v>
   <v>       0.38095238       0.23809524       0.04761905 </v>
   <v>       0.42857143       0.23809524       0.04761905 </v>
   <v>       0.47619048       0.23809524       0.04761905 </v>
   <v>      -0.47619048       0.23809524       0.04761905 </v>
   <v>      -0.42857143       0.23809524       0.04761905 </v>
   <v>      -0.38095238       0.23809524       0.04761905 </v>
   <v>      -0.33333333       0.23809524       0.04761905 </v>
   <v>      -0.28571429       0.23809524       0.04761905 </v>
   <v>      -0.23809524       0.23809524       0.04761905 </v>
   <v>      -0.19047619       0.23809524       0.04761905 </v>
   <v>       0.33333333       0.28571429       0.04761905 </v>
   <v>       0.38095238       0.28571429       0.04761905 </v>
   <v>       0.42857143       0.28571429       0.04761905 </v>
   <v>       0.47619048       0.28571429       0.04761905 </v>
   <v>      -0.47619048       0.28571429       0.04761905 </v>
   <v>      -0.42857143       0.28571429       0.04761905 </v>
   <v>      -0.38095238       0.28571429       0.04761905 </v>
   <v>      -0.33333333       0.28571429       0.04761905 </v>
   <v>      -0.28571429       0.28571429       0.04761905 </v>
   <v>      -0.23809524       0.28571429       0.04761905 </v>
   <v>       0.38095238       0.33333333       0.04761905 </v>
   <v>       0.42857143       0.33333333       0.04761905 </v>
   <v>       0.47619048       0.33333333       0.04761905 </v>
   <v>      -0.47619048       0.33333333       0.04761905 </v>
   <v>      -0.42857143       0.33333333       0.04761905 </v>
   <v>      -0.38095238       0.33333333       0.04761905 </v>
   <v>      -0.33333333       0.33333333       0.04761905 </v>
   <v>      -0.28571429       0.33333333       0.04761905 </v>
   <v>       0.42857143       0.38095238       0.04761905 </v>
   <v>       0.47619048       0.38095238       0.04761905 </v>
   <v>      -0.47619048       0.38095238       0.04761905 </v>
   <v>      -0.42857143       0.38095238       0.04761905 </v>
   <v>      -0.38095238       0.38095238       0.04761905 </v>
   <v>      -0.33333333       0.38095238       0.04761905 </v>
   <v>       0.47619048       0.42857143       0.04761905 </v>
   <v>      -0.47619048       0.42857143       0.04761905 </v>
   <v>      -0.42857143       0.42857143       0.04761905 </v>
   <v>      -0.38095238       0.42857143       0.04761905 </v>
   <v>      -0.47619048       0.47619048       0.04761905 </v>
   <v>      -0.42857143       0.47619048       0.04761905 </v>
   <v>       0.28571429       0.19047619       0.09523810 </v>
   <v>       0.33333333       0.19047619       0.09523810 </v>
   <v>       0.38095238       0.19047619       0.09523810 </v>
   <v>       0.42857143       0.19047619       0.09523810 </v>
   <v>       0.47619048       0.19047619       0.09523810 </v>
   <v>      -0.47619048       0.19047619       0.09523810 </v>
   <v>      -0.42857143       0.19047619       0.09523810 </v>
   <v>       0.33333333       0.23809524       0.09523810 </v>
   <v>       0.38095238       0.23809524       0.09523810 </v>
   <v>       0.42857143       0.23809524       0.09523810 </v>
   <v>       0.47619048       0.23809524       0.09523810 </v>
   <v>      -0.47619048       0.23809524       0.09523810 </v>
   <v>      -0.42857143       0.23809524       0.09523810 </v>
   <v>      -0.38095238       0.23809524       0.09523810 </v>
   <v>      -0.33333333       0.23809524       0.09523810 </v>
   <v>      -0.28571429       0.23809524       0.09523810 </v>
   <v>      -0.23809524       0.23809524       0.09523810 </v>
   <v>      -0.19047619       0.23809524       0.09523810 </v>
   <v>      -0.14285714       0.23809524       0.09523810 </v>
   <v>       0.38095238       0.28571429       0.09523810 </v>
   <v>       0.42857143       0.28571429       0.09523810 </v>
   <v>       0.47619048       0.28571429       0.09523810 </v>
   <v>      -0.47619048       0.28571429       0.09523810 </v>
   <v>      -0.42857143       0.28571429       0.09523810 </v>
   <v>      -0.38095238       0.28571429       0.09523810 </v>
   <v>      -0.33333333       0.28571429       0.09523810 </v>
   <v>      -0.28571429       0.28571429       0.09523810 </v>
   <v>      -0.23809524       0.28571429       0.09523810 </v>
   <v>      -0.19047619       0.28571429       0.09523810 </v>
   <v>       0.42857143       0.33333333       0.09523810 </v>
   <v>       0.47619048       0.33333333       0.09523810 </v>
   <v>      -0.47619048       0.33333333       0.09523810 </v>
   <v>      -0.42857143       0.33333333       0.09523810 </v>
   <v>      -0.38095238       0.33333333       0.09523810 </v>
   <v>      -0.33333333       0.33333333       0.09523810 </v>
   <v>      -0.28571429       0.33333333       0.09523810 </v>
   <v>      -0.23809524       0.33333333       0.09523810 </v>
   <v>       0.47619048       0.38095238       0.09523810 </v>
   <v>      -0.47619048       0.38095238       0.09523810 </v>
   <v>      -0.42857143       0.38095238       0.09523810 </v>
   <v>      -0.38095238       0.38095238       0.09523810 </v>
   <v>      -0.33333333       0.38095238       0.09523810 </v>
   <v>      -0.28571429       0.38095238       0.09523810 </v>
   <v>      -0.47619048       0.42857143       0.09523810 </v>
   <v>      -0.42857143       0.42857143       0.09523810 </v>
   <v>      -0.38095238       0.42857143       0.09523810 </v>
   <v>      -0.33333333       0.42857143       0.09523810 </v>
   <v>      -0.42857143       0.47619048       0.09523810 </v>
   <v>      -0.38095238       0.47619048       0.09523810 </v>
   <v>       0.42857143       0.28571429       0.14285714 </v>
   <v>       0.47619048       0.28571429       0.14285714 </v>
   <v>      -0.47619048       0.28571429       0.14285714 </v>
   <v>      -0.42857143       0.28571429       0.14285714 </v>
   <v>      -0.38095238       0.28571429       0.14285714 </v>
   <v>       0.47619048       0.33333333       0.14285714 </v>
   <v>      -0.47619048       0.33333333       0.14285714 </v>
   <v>      -0.42857143       0.33333333       0.14285714 </v>
   <v>      -0.38095238       0.33333333       0.14285714 </v>
   <v>      -0.33333333       0.33333333       0.14285714 </v>
   <v>      -0.28571429       0.33333333       0.14285714 </v>
   <v>      -0.23809524       0.33333333       0.14285714 </v>
   <v>      -0.19047619       0.33333333       0.14285714 </v>
   <v>      -0.47619048       0.38095238       0.14285714 </v>
   <v>      -0.42857143       0.38095238       0.14285714 </v>
   <v>      -0.38095238       0.38095238       0.14285714 </v>
   <v>      -0.33333333       0.38095238       0.14285714 </v>
   <v>      -0.28571429       0.38095238       0.14285714 </v>
   <v>      -0.23809524       0.38095238       0.14285714 </v>
   <v>      -0.42857143       0.42857143       0.14285714 </v>
   <v>      -0.38095238       0.42857143       0.14285714 </v>
   <v>      -0.33333333       0.42857143       0.14285714 </v>
   <v>      -0.28571429       0.42857143       0.14285714 </v>
   <v>      -0.38095238       0.47619048       0.14285714 </v>
   <v>      -0.33333333       0.47619048       0.14285714 </v>
   <v>      -0.42857143       0.38095238       0.19047619 </v>
   <v>      -0.38095238       0.38095238       0.19047619 </v>
   <v>      -0.33333333       0.38095238       0.19047619 </v>
   <v>      -0.38095238       0.42857143       0.19047619 </v>
   <v>      -0.33333333       0.42857143       0.19047619 </v>
   <v>      -0.28571429       0.42857143       0.19047619 </v>
   <v>      -0.23809524       0.42857143       0.19047619 </v>
   <v>      -0.33333333       0.47619048       0.19047619 </v>
   <v>      -0.28571429       0.47619048       0.19047619 </v>
   <v>      -0.28571429       0.47619048       0.23809524 </v>
  </varray>
  <varray name="weights" >
   <v>       0.00010798 </v>
   <v>       0.00086384 </v>
   <v>       0.00086384 </v>
   <v>       0.00086384 </v>
   <v>       0.00086384 </v>
   <v>       0.00086384 </v>
   <v>       0.00086384 </v>
   <v>       0.00086384 </v>
   <v>       0.00086384 </v>
   <v>       0.00086384 </v>
   <v>       0.00086384 </v>
   <v>       0.00064788 </v>
   <v>       0.00259151 </v>
   <v>       0.00259151 </v>
   <v>       0.00259151 </v>
   <v>       0.00259151 </v>
   <v>       0.00259151 </v>
   <v>       0.00259151 </v>
   <v>       0.00259151 </v>
   <v>       0.00259151 </v>
   <v>       0.00259151 </v>
   <v>       0.00259151 </v>
   <v>       0.00259151 </v>
   <v>       0.00259151 </v>
   <v>       0.00259151 </v>
   <v>       0.00259151 </v>
   <v>       0.00259151 </v>
   <v>       0.00259151 </v>
   <v>       0.00259151 </v>
   <v>       0.00259151 </v>
   <v>       0.00129576 </v>
   <v>       0.00064788 </v>
   <v>       0.00259151 </v>
   <v>       0.00259151 </v>
   <v>       0.00259151 </v>
   <v>       0.00259151 </v>
   <v>       0.00259151 </v>
   <v>       0.00259151 </v>
   <v>       0.00259151 </v>
   <v>       0.00259151 </v>
   <v>       0.00259151 </v>
   <v>       0.00259151 </v>
   <v>       0.00259151 </v>
   <v>       0.00259151 </v>
   <v>       0.00259151 </v>
   <v>       0.00259151 </v>
   <v>       0.00259151 </v>
   <v>       0.00259151 </v>
   <v>       0.00129576 </v>
   <v>       0.00064788 </v>
   <v>       0.00259151 </v>
   <v>       0.00259151 </v>
   <v>       0.00259151 </v>
   <v>       0.00259151 </v>
   <v>       0.00259151 </v>
   <v>       0.00259151 </v>
   <v>       0.00259151 </v>
   <v>       0.00259151 </v>
   <v>       0.00259151 </v>
   <v>       0.00259151 </v>
   <v>       0.00259151 </v>
   <v>       0.00259151 </v>
   <v>       0.00259151 </v>
   <v>       0.00259151 </v>
   <v>       0.00129576 </v>
   <v>       0.00064788 </v>
   <v>       0.00259151 </v>
   <v>       0.00259151 </v>
   <v>       0.00259151 </v>
   <v>       0.00259151 </v>
   <v>       0.00259151 </v>
   <v>       0.00259151 </v>
   <v>       0.00259151 </v>
   <v>       0.00259151 </v>
   <v>       0.00259151 </v>
   <v>       0.00259151 </v>
   <v>       0.00259151 </v>
   <v>       0.00259151 </v>
   <v>       0.00129576 </v>
   <v>       0.00064788 </v>
   <v>       0.00259151 </v>
   <v>       0.00259151 </v>
   <v>       0.00259151 </v>
   <v>       0.00259151 </v>
   <v>       0.00259151 </v>
   <v>       0.00259151 </v>
   <v>       0.00259151 </v>
   <v>       0.00259151 </v>
   <v>       0.00259151 </v>
   <v>       0.00259151 </v>
   <v>       0.00129576 </v>
   <v>       0.00064788 </v>
   <v>       0.00259151 </v>
   <v>       0.00259151 </v>
   <v>       0.00259151 </v>
   <v>       0.00259151 </v>
   <v>       0.00259151 </v>
   <v>       0.00259151 </v>
   <v>       0.00259151 </v>
   <v>       0.00259151 </v>
   <v>       0.00129576 </v>
   <v>       0.00064788 </v>
   <v>       0.00259151 </v>
   <v>       0.00259151 </v>
   <v>       0.00259151 </v>
   <v>       0.00259151 </v>
   <v>       0.00259151 </v>
   <v>       0.00259151 </v>
   <v>       0.00129576 </v>
   <v>       0.00064788 </v>
   <v>       0.00259151 </v>
   <v>       0.00259151 </v>
   <v>       0.00259151 </v>
   <v>       0.00259151 </v>
   <v>       0.00129576 </v>
   <v>       0.00064788 </v>
   <v>       0.00259151 </v>
   <v>       0.00259151 </v>
   <v>       0.00129576 </v>
   <v>       0.00064788 </v>
   <v>       0.00129576 </v>
   <v>       0.00259151 </v>
   <v>       0.00518303 </v>
   <v>       0.00518303 </v>
   <v>       0.00518303 </v>
   <v>       0.00518303 </v>
   <v>       0.00518303 </v>
   <v>       0.00518303 </v>
   <v>       0.00518303 </v>
   <v>       0.00518303 </v>
   <v>       0.00259151 </v>
   <v>       0.00518303 </v>
   <v>       0.00518303 </v>
   <v>       0.00518303 </v>
   <v>       0.00518303 </v>
   <v>       0.00518303 </v>
   <v>       0.00518303 </v>
   <v>       0.00518303 </v>
   <v>       0.00518303 </v>
   <v>       0.00518303 </v>
   <v>       0.00518303 </v>
   <v>       0.00518303 </v>
   <v>       0.00518303 </v>
   <v>       0.00518303 </v>
   <v>       0.00518303 </v>
   <v>       0.00259151 </v>
   <v>       0.00259151 </v>
   <v>       0.00518303 </v>
   <v>       0.00518303 </v>
   <v>       0.00518303 </v>
   <v>       0.00518303 </v>
   <v>       0.00518303 </v>
   <v>       0.00518303 </v>
   <v>       0.00518303 </v>
   <v>       0.00518303 </v>
   <v>       0.00518303 </v>
   <v>       0.00518303 </v>
   <v>       0.00518303 </v>
   <v>       0.00518303 </v>
   <v>       0.00259151 </v>
   <v>       0.00259151 </v>
   <v>       0.00518303 </v>
   <v>       0.00518303 </v>
   <v>       0.00518303 </v>
   <v>       0.00518303 </v>
   <v>       0.00518303 </v>
   <v>       0.00518303 </v>
   <v>       0.00518303 </v>
   <v>       0.00518303 </v>
   <v>       0.00518303 </v>
   <v>       0.00518303 </v>
   <v>       0.00259151 </v>
   <v>       0.00259151 </v>
   <v>       0.00518303 </v>
   <v>       0.00518303 </v>
   <v>       0.00518303 </v>
   <v>       0.00518303 </v>
   <v>       0.00518303 </v>
   <v>       0.00518303 </v>
   <v>       0.00518303 </v>
   <v>       0.00518303 </v>
   <v>       0.00259151 </v>
   <v>       0.00259151 </v>
   <v>       0.00518303 </v>
   <v>       0.00518303 </v>
   <v>       0.00518303 </v>
   <v>       0.00518303 </v>
   <v>       0.00518303 </v>
   <v>       0.00518303 </v>
   <v>       0.00259151 </v>
   <v>       0.00259151 </v>
   <v>       0.00518303 </v>
   <v>       0.00518303 </v>
   <v>       0.00518303 </v>
   <v>       0.00518303 </v>
   <v>       0.00259151 </v>
   <v>       0.00259151 </v>
   <v>       0.00518303 </v>
   <v>       0.00518303 </v>
   <v>       0.00259151 </v>
   <v>       0.00259151 </v>
   <v>       0.00259151 </v>
   <v>       0.00259151 </v>
   <v>       0.00518303 </v>
   <v>       0.00518303 </v>
   <v>       0.00518303 </v>
   <v>       0.00518303 </v>
   <v>       0.00518303 </v>
   <v>       0.00518303 </v>
   <v>       0.00259151 </v>
   <v>       0.00518303 </v>
   <v>       0.00518303 </v>
   <v>       0.00518303 </v>
   <v>       0.00518303 </v>
   <v>       0.00518303 </v>
   <v>       0.00518303 </v>
   <v>       0.00518303 </v>
   <v>       0.00518303 </v>
   <v>       0.00518303 </v>
   <v>       0.00518303 </v>
   <v>       0.00259151 </v>
   <v>       0.00259151 </v>
   <v>       0.00518303 </v>
   <v>       0.00518303 </v>
   <v>       0.00518303 </v>
   <v>       0.00518303 </v>
   <v>       0.00518303 </v>
   <v>       0.00518303 </v>
   <v>       0.00518303 </v>
   <v>       0.00518303 </v>
   <v>       0.00259151 </v>
   <v>       0.00259151 </v>
   <v>       0.00518303 </v>
   <v>       0.00518303 </v>
   <v>       0.00518303 </v>
   <v>       0.00518303 </v>
   <v>       0.00518303 </v>
   <v>       0.00518303 </v>
   <v>       0.00259151 </v>
   <v>       0.00259151 </v>
   <v>       0.00518303 </v>
   <v>       0.00518303 </v>
   <v>       0.00518303 </v>
   <v>       0.00518303 </v>
   <v>       0.00259151 </v>
   <v>       0.00259151 </v>
   <v>       0.00518303 </v>
   <v>       0.00518303 </v>
   <v>       0.00259151 </v>
   <v>       0.00259151 </v>
   <v>       0.00259151 </v>
   <v>       0.00259151 </v>
   <v>       0.00518303 </v>
   <v>       0.00518303 </v>
   <v>       0.00518303 </v>
   <v>       0.00518303 </v>
   <v>       0.00259151 </v>
   <v>       0.00518303 </v>
   <v>       0.00518303 </v>
   <v>       0.00518303 </v>
   <v>       0.00518303 </v>
   <v>       0.00518303 </v>
   <v>       0.00518303 </v>
   <v>       0.00259151 </v>
   <v>       0.00259151 </v>
   <v>       0.00518303 </v>
   <v>       0.00518303 </v>
   <v>       0.00518303 </v>
   <v>       0.00518303 </v>
   <v>       0.00259151 </v>
   <v>       0.00259151 </v>
   <v>       0.00518303 </v>
   <v>       0.00518303 </v>
   <v>       0.00259151 </v>
   <v>       0.00259151 </v>
   <v>       0.00259151 </v>
   <v>       0.00259151 </v>
   <v>       0.00518303 </v>
   <v>       0.00518303 </v>
   <v>       0.00259151 </v>
   <v>       0.00518303 </v>
   <v>       0.00518303 </v>
   <v>       0.00259151 </v>
   <v>       0.00259151 </v>
   <v>       0.00259151 </v>
   <v>       0.00259151 </v>
  </varray>
 </kpoints>
 <parameters>
  <separator name="general" >
   <i type="string" name="SYSTEM">Silicon DFT Groundstate Calculation</i>
   <i type="logical" name="LCOMPAT"> F  </i>
  </separator>
  <separator name="electronic" >
   <i type="string" name="PREC">normal</i>
   <i name="ENMAX">    520.00000000</i>
   <i name="ENAUG">    412.95200000</i>
   <i name="EDIFF">      0.00000001</i>
   <i type="int" name="IALGO">    38</i>
   <i type="int" name="IWAVPR">    10</i>
   <i type="int" name="NBANDS">     8</i>
   <i type="int" name="NBANDSLOW">    -1</i>
   <i type="int" name="NBANDSHIGH">    -1</i>
   <i name="NELECT">      8.00000000</i>
   <i type="int" name="TURBO">     0</i>
   <i type="int" name="IRESTART">     0</i>
   <i type="int" name="NREBOOT">     0</i>
   <i type="int" name="NMIN">     0</i>
   <i name="EREF">      0.00000000</i>
   <separator name="electronic smearing" >
    <i type="int" name="ISMEAR">     0</i>
    <i name="SIGMA">      0.05000000</i>
    <i name="KSPACING">      0.10000000</i>
    <i type="logical" name="KGAMMA"> T  </i>
    <i type="logical" name="KBLOWUP"> T  </i>
   </separator>
   <separator name="electronic projectors" >
    <i type="logical" name="LREAL"> T  </i>
    <v name="ROPT">     -0.00050000</v>
    <i type="int" name="LMAXPAW">  -100</i>
    <i type="int" name="LMAXMIX">     2</i>
    <i type="logical" name="NLSPLINE"> F  </i>
   </separator>
   <separator name="electronic startup" >
    <i type="int" name="ISTART">     1</i>
    <i type="int" name="ICHARG">     0</i>
    <i type="int" name="INIWAV">     1</i>
   </separator>
   <separator name="electronic spin" >
    <i type="int" name="ISPIN">     1</i>
    <i type="logical" name="LNONCOLLINEAR"> F  </i>
    <v name="MAGMOM">      1.00000000      1.00000000</v>
    <i name="NUPDOWN">     -1.00000000</i>
    <i type="logical" name="LSORBIT"> F  </i>
    <v name="SAXIS">      0.00000000      0.00000000      1.00000000</v>
    <i type="logical" name="LSPIRAL"> F  </i>
    <v name="QSPIRAL">      0.00000000      0.00000000      0.00000000</v>
    <i type="logical" name="LZEROZ"> F  </i>
   </separator>
   <separator name="electronic exchange-correlation" >
    <i type="logical" name="LASPH"> F  </i>
    <i type="logical" name="LMETAGGA"> F  </i>
   </separator>
   <separator name="electronic convergence" >
    <i type="int" name="NELM">    60</i>
    <i type="int" name="NELMDL">     0</i>
    <i type="int" name="NELMIN">     2</i>
    <i name="ENINI">    520.00000000</i>
    <separator name="electronic convergence detail" >
     <i type="logical" name="LDIAG"> T  </i>
     <i type="logical" name="LSUBROT"> F  </i>
     <i name="WEIMIN">      0.00000000</i>
     <i name="EBREAK">      0.00000000</i>
     <i name="DEPER">      0.30000000</i>
     <i type="int" name="NRMM">     4</i>
     <i name="TIME">      0.40000000</i>
    </separator>
   </separator>
   <separator name="electronic mixer" >
    <i name="AMIX">      0.40000000</i>
    <i name="BMIX">      1.00000000</i>
    <i name="AMIN">      0.10000000</i>
    <i name="AMIX_MAG">      1.60000000</i>
    <i name="BMIX_MAG">      1.00000000</i>
    <separator name="electronic mixer details" >
     <i type="int" name="IMIX">     4</i>
     <i type="logical" name="MIXFIRST"> F  </i>
     <i type="int" name="MAXMIX">   -45</i>
     <i name="WC">    100.00000000</i>
     <i type="int" name="INIMIX">     1</i>
     <i type="int" name="MIXPRE">     1</i>
     <i type="int" name="MREMOVE">     5</i>
    </separator>
   </separator>
   <separator name="electronic dipolcorrection" >
    <i type="logical" name="LDIPOL"> F  </i>
    <i type="logical" name="LMONO"> F  </i>
    <i type="int" name="IDIPOL">     0</i>
    <i name="EPSILON">      1.00000000</i>
    <v name="DIPOL">   -100.00000000   -100.00000000   -100.00000000</v>
    <i name="EFIELD">      0.00000000</i>
   </separator>
  </separator>
  <separator name="grids" >
   <i type="int" name="NGX">    24</i>
   <i type="int" name="NGY">    24</i>
   <i type="int" name="NGZ">    24</i>
   <i type="int" name="NGXF">    48</i>
   <i type="int" name="NGYF">    48</i>
   <i type="int" name="NGZF">    48</i>
   <i type="logical" name="ADDGRID"> F  </i>
  </separator>
  <separator name="ionic" >
   <i type="int" name="NSW">     0</i>
   <i type="int" name="IBRION">    -1</i>
   <i type="int" name="MDALGO">     0</i>
   <i type="int" name="ISIF">     2</i>
   <i name="PSTRESS">      0.00000000</i>
   <i name="EDIFFG">      0.00000010</i>
   <i type="int" name="NFREE">     0</i>
   <i name="POTIM">      0.50000000</i>
   <i name="SMASS">     -3.00000000</i>
   <i name="SCALEE">      1.00000000</i>
  </separator>
  <separator name="ionic md" >
   <i name="TEBEG">      0.00010000</i>
   <i name="TEEND">      0.00010000</i>
   <i type="int" name="NBLOCK">     1</i>
   <i type="int" name="KBLOCK">     1</i>
   <i type="int" name="NPACO">   256</i>
   <i name="APACO">     10.00000000</i>
  </separator>
  <separator name="symmetry" >
   <i type="int" name="ISYM">     2</i>
   <i name="SYMPREC">      0.00001000</i>
  </separator>
  <separator name="dos" >
   <i type="int" name="LORBIT">     0</i>
   <v name="RWIGS">     -1.00000000</v>
   <i type="int" name="NEDOS">   301</i>
   <i name="EMIN">     10.00000000</i>
   <i name="EMAX">    -10.00000000</i>
   <i name="EFERMI">      0.00000000</i>
  </separator>
  <separator name="writing" >
   <i type="int" name="NWRITE">     2</i>
   <i type="logical" name="LWAVE"> T  </i>
   <i type="logical" name="LDOWNSAMPLE"> F  </i>
   <i type="logical" name="LCHARG"> T  </i>
   <i type="logical" name="LPARD"> F  </i>
   <i type="logical" name="LVTOT"> F  </i>
   <i type="logical" name="LVHAR"> F  </i>
   <i type="logical" name="LELF"> F  </i>
   <i type="logical" name="LOPTICS"> F  </i>
   <v name="STM">      0.00000000      0.00000000      0.00000000      0.00000000      0.00000000      0.00000000      0.00000000</v>
  </separator>
  <separator name="performance" >
   <i type="int" name="NPAR">     8</i>
   <i type="int" name="NSIM">     4</i>
   <i type="int" name="NBLK">    -1</i>
   <i type="logical" name="LPLANE"> T  </i>
   <i type="logical" name="LSCALAPACK"> T  </i>
   <i type="logical" name="LSCAAWARE"> F  </i>
   <i type="logical" name="LSCALU"> F  </i>
   <i type="logical" name="LASYNC"> F  </i>
   <i type="logical" name="LORBITALREAL"> F  </i>
  </separator>
  <separator name="miscellaneous" >
   <i type="int" name="IDIOT">     3</i>
   <i type="int" name="PHON_NSTRUCT">    -1</i>
   <i type="logical" name="LMUSIC"> F  </i>
   <v name="POMASS">     28.08500000</v>
   <v name="DARWINR">      0.00000000</v>
   <v name="DARWINV">      1.00000000</v>
   <i type="logical" name="LCORR"> T  </i>
  </separator>
  <i type="logical" name="GGA_COMPAT"> T  </i>
  <i type="logical" name="LBERRY"> F  </i>
  <i type="int" name="ICORELEVEL">     0</i>
  <i type="logical" name="LDAU"> F  </i>
  <i type="int" name="I_CONSTRAINED_M">     0</i>
  <separator name="electronic exchange-correlation" >
   <i type="string" name="GGA">--</i>
   <i type="int" name="VOSKOWN">     0</i>
   <i type="logical" name="LHFCALC"> F  </i>
   <i type="string" name="PRECFOCK"></i>
   <i type="logical" name="LSYMGRAD"> F  </i>
   <i type="logical" name="LHFONE"> F  </i>
   <i type="logical" name="LRHFCALC"> F  </i>
   <i type="logical" name="LTHOMAS"> F  </i>
   <i type="logical" name="LMODELHF"> F  </i>
   <i type="logical" name="LFOCKACE"> F  </i>
   <i name="ENCUT4O">     -1.00000000</i>
   <i type="int" name="EXXOEP">     0</i>
   <i type="int" name="FOURORBIT">     0</i>
   <i name="AEXX">      0.00000000</i>
   <i name="HFALPHA">      0.00000000</i>
   <i name="MCALPHA">      0.00000000</i>
   <i name="ALDAX">      1.00000000</i>
   <i name="AGGAX">      1.00000000</i>
   <i name="ALDAC">      1.00000000</i>
   <i name="AGGAC">      1.00000000</i>
   <i type="int" name="NKREDX">     1</i>
   <i type="int" name="NKREDY">     1</i>
   <i type="int" name="NKREDZ">     1</i>
   <i type="logical" name="SHIFTRED"> F  </i>
   <i type="logical" name="ODDONLY"> F  </i>
   <i type="logical" name="EVENONLY"> F  </i>
   <i type="int" name="LMAXFOCK">     0</i>
   <i type="int" name="NMAXFOCKAE">     0</i>
   <i type="logical" name="LFOCKAEDFT"> F  </i>
   <i name="HFSCREEN">      0.00000000</i>
   <i name="HFSCREENC">      0.00000000</i>
   <i type="int" name="NBANDSGWLOW">     0</i>
  </separator>
  <separator name="vdW DFT" >
   <i type="logical" name="LUSE_VDW"> F  </i>
   <i name="Zab_VDW">     -0.84910000</i>
   <i name="PARAM1">      0.12340000</i>
   <i name="PARAM2">      1.00000000</i>
   <i name="PARAM3">      0.00000000</i>
  </separator>
  <separator name="model GW" >
   <i type="int" name="MODEL_GW">     0</i>
   <i name="MODEL_EPS0">     12.00772552</i>
   <i name="MODEL_ALPHA">      1.00000000</i>
  </separator>
  <separator name="linear response parameters" >
   <i type="logical" name="LEPSILON"> F  </i>
   <i type="logical" name="LRPA"> F  </i>
   <i type="logical" name="LNABLA"> F  </i>
   <i type="logical" name="LVEL"> F  </i>
   <i name="CSHIFT">      0.10000000</i>
   <i name="OMEGAMAX">     -1.00000000</i>
   <i name="DEG_THRESHOLD">      0.00200000</i>
   <i name="RTIME">     -0.10000000</i>
   <i name="WPLASMAI">      0.00000000</i>
   <v name="DFIELD">      0.00000000      0.00000000      0.00000000</v>
   <v name="WPLASMA">      0.00000000      0.00000000      0.00000000      0.00000000      0.00000000      0.00000000      0.00000000      0.00000000      0.00000000</v>
  </separator>
  <separator name="orbital magnetization" >
   <i type="logical" name="NUCIND"> F  </i>
   <v name="MAGPOS">      0.00000000      0.00000000      0.00000000</v>
   <i type="logical" name="LNICSALL"> T  </i>
   <i type="logical" name="ORBITALMAG"> F  </i>
   <i type="logical" name="LMAGBLOCH"> F  </i>
   <i type="logical" name="LCHIMAG"> F  </i>
   <i type="logical" name="LGAUGE"> T  </i>
   <i type="int" name="MAGATOM">     0</i>
   <v name="MAGDIPOL">      0.00000000      0.00000000      0.00000000</v>
   <v name="AVECCONST">      0.00000000      0.00000000      0.00000000</v>
  </separator>
  <separator name="response functions" >
   <i type="logical" name="LFINITE_TEMPERATURE"> F  </i>
   <i type="logical" name="LADDER"> F  </i>
   <i type="logical" name="LRPAFORCE"> F  </i>
   <i type="logical" name="LFXC"> F  </i>
   <i type="logical" name="LHARTREE"> T  </i>
   <i type="int" name="IBSE">     0</i>
   <v type="int" name="KPOINT">    -1     0     0     0</v>
   <i type="logical" name="LTCTC"> F  </i>
   <i type="logical" name="LTCTE"> F  </i>
   <i type="logical" name="LTETE"> F  </i>
   <i type="logical" name="LTRIPLET"> F  </i>
   <i type="logical" name="LFXCEPS"> F  </i>
   <i type="logical" name="LFXHEG"> F  </i>
   <i type="int" name="NATURALO">     2</i>
   <i type="logical" name="LHOLEGF"> F  </i>
   <i type="logical" name="L2ORDER"> F  </i>
   <i type="logical" name="LDMP1"> F  </i>
   <i type="logical" name="LMP2LT"> F  </i>
   <i type="logical" name="LSMP2LT"> F  </i>
   <i type="logical" name="LGWLF"> F  </i>
   <i name="ENCUTGW">     -2.00000000</i>
   <i name="ENCUTGWSOFT">     -2.00000000</i>
   <i name="ENCUTLF">     -1.00000000</i>
   <i type="logical" name="LESF_SPLINES"> F  </i>
   <i type="int" name="LMAXMP2">    -1</i>
   <i name="SCISSOR">      0.00000000</i>
   <i type="int" name="NOMEGA">     0</i>
   <i type="int" name="NOMEGAR">     0</i>
   <i type="int" name="NBANDSGW">    -1</i>
   <i type="int" name="NBANDSO">    -1</i>
   <i type="int" name="NBANDSV">    -1</i>
   <i type="int" name="NELMGW">     1</i>
   <i type="int" name="NELMHF">     1</i>
   <i type="int" name="DIM">     3</i>
   <i type="int" name="IESPILON">     4</i>
   <i type="int" name="ANTIRES">     0</i>
   <i name="OMEGAMAX">    -30.00000000</i>
   <i name="OMEGAMIN">    -30.00000000</i>
   <i name="OMEGATL">   -200.00000000</i>
   <i type="int" name="OMEGAGRID">     0</i>
   <i name="CSHIFT">     -0.10000000</i>
   <i type="logical" name="LSELFENERGY"> F  </i>
   <i type="logical" name="LSPECTRAL"> F  </i>
   <i type="logical" name="LSPECTRALGW"> F  </i>
   <i type="logical" name="LSINGLES"> F  </i>
   <i type="logical" name="LFERMIGW"> F  </i>
   <i type="logical" name="ODDONLYGW"> F  </i>
   <i type="logical" name="EVENONLYGW"> F  </i>
   <i type="int" name="NKREDLFX">     1</i>
   <i type="int" name="NKREDLFY">     1</i>
   <i type="int" name="NKREDLFZ">     1</i>
   <i type="int" name="MAXMEM">  2800</i>
   <i type="int" name="TELESCOPE">     0</i>
   <i type="int" name="NTAUPAR">    -1</i>
   <i type="int" name="NOMEGAPAR">    -1</i>
   <i name="DAMP_NEWTON">      0.80000001</i>
   <i name="LAMBDA">      1.00000000</i>
  </separator>
  <separator name="External order field" >
   <i name="OFIELD_KAPPA">      0.00000000</i>
   <v name="OFIELD_K">      0.00000000      0.00000000      0.00000000</v>
   <i name="OFIELD_Q6_NEAR">      0.00000000</i>
   <i name="OFIELD_Q6_FAR">      0.00000000</i>
   <i name="OFIELD_A">      0.00000000</i>
  </separator>
  <separator name="optional k-points parameters" >
   <i type="int" name="KPOINTS_OPT_MODE">     1</i>
   <i type="logical" name="LKPOINTS_OPT"> F  </i>
  </separator>
 </parameters>
 <atominfo>
  <atoms>       2 </atoms>
  <types>       1 </types>
  <array name="atoms" >
   <dimension dim="1">ion</dimension>
   <field type="string">element</field>
   <field type="int">atomtype</field>
   <set>
    <rc><c>Si</c><c>   1</c></rc>
    <rc><c>Si</c><c>   1</c></rc>
   </set>
  </array>
  <array name="atomtypes" >
   <dimension dim="1">type</dimension>
   <field type="int">atomspertype</field>
   <field type="string">element</field>
   <field>mass</field>
   <field>valence</field>
   <field type="string">pseudopotential</field>
   <set>
    <rc><c>   2</c><c>Si</c><c>     28.08500000</c><c>      4.00000000</c><c>  PAW_PBE Si_GW 04May2012               </c></rc>
   </set>
  </array>
 </atominfo>
 <structure name="initialpos" >
  <crystal>
   <varray name="basis" >
    <v>       2.71500000       2.71500000       0.00000000 </v>
    <v>       0.00000000       2.71500000       2.71500000 </v>
    <v>       2.71500000       0.00000000       2.71500000 </v>
   </varray>
   <i name="volume">     40.02575175 </i>
   <varray name="rec_basis" >
    <v>       0.18416206       0.18416206      -0.18416206 </v>
    <v>      -0.18416206       0.18416206       0.18416206 </v>
    <v>       0.18416206      -0.18416206       0.18416206 </v>
   </varray>
  </crystal>
  <varray name="positions" >
   <v>       0.00000000       0.00000000       0.00000000 </v>
   <v>       0.25000000       0.25000000       0.25000000 </v>
  </varray>
 </structure>
 <calculation>
  <scstep>
   <time name="dav">    0.36    0.36</time>
   <time name="total">    0.39    0.43</time>
   <energy>
    <i name="alphaZ">      6.08881246 </i>
    <i name="ewald">   -228.56352493 </i>
    <i name="hartreedc">    -14.92399196 </i>
    <i name="XCdc">    -18.21654318 </i>
    <i name="pawpsdc">    257.92020609 </i>
    <i name="pawaedc">   -222.48176310 </i>
    <i name="eentropy">     -0.00000000 </i>
    <i name="bandstr">      3.20289996 </i>
    <i name="atom">    206.13270273 </i>
    <i name="e_fr_energy">    -10.84120191 </i>
    <i name="e_wo_entrp">    -10.84120191 </i>
    <i name="e_0_energy">    -10.84120191 </i>
   </energy>
  </scstep>
  <scstep>
   <time name="dav">    0.31    0.31</time>
   <time name="total">    0.32    0.32</time>
   <energy>
    <i name="alphaZ">      6.08881246 </i>
    <i name="ewald">   -228.56352493 </i>
    <i name="hartreedc">    -14.92399151 </i>
    <i name="XCdc">    -18.21654317 </i>
    <i name="pawpsdc">    257.92020791 </i>
    <i name="pawaedc">   -222.48176488 </i>
    <i name="eentropy">     -0.00000000 </i>
    <i name="bandstr">      3.20289946 </i>
    <i name="atom">    206.13270273 </i>
    <i name="e_fr_energy">    -10.84120191 </i>
    <i name="e_wo_entrp">    -10.84120191 </i>
    <i name="e_0_energy">    -10.84120191 </i>
   </energy>
  </scstep>
  <structure>
   <crystal>
    <varray name="basis" >
     <v>       2.71500000       2.71500000       0.00000000 </v>
     <v>       0.00000000       2.71500000       2.71500000 </v>
     <v>       2.71500000       0.00000000       2.71500000 </v>
    </varray>
    <i name="volume">     40.02575175 </i>
    <varray name="rec_basis" >
     <v>       0.18416206       0.18416206      -0.18416206 </v>
     <v>      -0.18416206       0.18416206       0.18416206 </v>
     <v>       0.18416206      -0.18416206       0.18416206 </v>
    </varray>
   </crystal>
   <varray name="positions" >
    <v>       0.00000000       0.00000000       0.00000000 </v>
    <v>       0.25000000       0.25000000       0.25000000 </v>
   </varray>
  </structure>
  <varray name="forces" >
   <v>       0.00000000       0.00000000       0.00000000 </v>
   <v>      -0.00000000      -0.00000000      -0.00000000 </v>
  </varray>
  <varray name="stress" >
   <v>      21.35942160       0.00000000      -0.00000000 </v>
   <v>       0.00000000      21.35942160       0.00000000 </v>
   <v>      -0.00000000       0.00000000      21.35942160 </v>
  </varray>
  <energy>
   <i name="e_fr_energy">    -10.84120191 </i>
   <i name="e_wo_entrp">    -10.84120191 </i>
   <i name="e_0_energy">    -10.84120191 </i>
  </energy>
  <time name="totalsc">    1.71    2.24</time>
  <eigenvalues>
   <array>
    <dimension dim="1">band</dimension>
    <dimension dim="2">kpoint</dimension>
    <dimension dim="3">spin</dimension>
    <field>eigene</field>
    <field>occ</field>
    <set>
     <set comment="spin 1">
      <set comment="kpoint 1">
       <r>   -6.4981    1.0000 </r>
       <r>    5.4653    1.0000 </r>
       <r>    5.4653    1.0000 </r>
       <r>    5.4653    1.0000 </r>
       <r>    8.0306    0.0000 </r>
       <r>    8.0306    0.0000 </r>
       <r>    8.0306    0.0000 </r>
       <r>    8.8322    0.0000 </r>
      </set>
      <set comment="kpoint 2">
       <r>   -6.4683    1.0000 </r>
       <r>    5.1378    1.0000 </r>
       <r>    5.4150    1.0000 </r>
       <r>    5.4150    1.0000 </r>
       <r>    8.0882    0.0000 </r>
       <r>    8.1043    0.0000 </r>
       <r>    8.1043    0.0000 </r>
       <r>    9.0503    0.0000 </r>
      </set>
      <set comment="kpoint 3">
       <r>   -6.3793    1.0000 </r>
       <r>    4.4034    1.0000 </r>
       <r>    5.2831    1.0000 </r>
       <r>    5.2831    1.0000 </r>
       <r>    8.0521    0.0000 </r>
       <r>    8.2990    0.0000 </r>
       <r>    8.2990    0.0000 </r>
       <r>    9.6789    0.0000 </r>
      </set>
      <set comment="kpoint 4">
       <r>   -6.2319    1.0000 </r>
       <r>    3.5334    1.0000 </r>
       <r>    5.1080    1.0000 </r>
       <r>    5.1080    1.0000 </r>
       <r>    7.9074    0.0000 </r>
       <r>    8.5523    0.0000 </r>
       <r>    8.5523    0.0000 </r>
       <r>   10.4933    0.0000 </r>
      </set>
      <set comment="kpoint 5">
       <r>   -6.0279    1.0000 </r>
       <r>    2.6351    1.0000 </r>
       <r>    4.9224    1.0000 </r>
       <r>    4.9224    1.0000 </r>
       <r>    7.7245    0.0000 </r>
       <r>    8.7912    0.0000 </r>
       <r>    8.7912    0.0000 </r>
       <r>   11.3489    0.0000 </r>
      </set>
      <set comment="kpoint 6">
       <r>   -5.7704    1.0000 </r>
       <r>    1.7528    1.0000 </r>
       <r>    4.7466    1.0000 </r>
       <r>    4.7466    1.0000 </r>
       <r>    7.5395    0.0000 </r>
       <r>    8.9504    0.0000 </r>
       <r>    8.9504    0.0000 </r>
       <r>   12.1865    0.0000 </r>
      </set>
      <set comment="kpoint 7">
       <r>   -5.4648    1.0000 </r>
       <r>    0.9110    1.0000 </r>
       <r>    4.5921    1.0000 </r>
       <r>    4.5921    1.0000 </r>
       <r>    7.3711    0.0000 </r>
       <r>    9.0034    0.0000 </r>
       <r>    9.0034    0.0000 </r>
       <r>   12.9299    0.0000 </r>
      </set>
      <set comment="kpoint 8">
       <r>   -5.1211    1.0000 </r>
       <r>    0.1302    1.0000 </r>
       <r>    4.4649    1.0000 </r>
       <r>    4.4649    1.0000 </r>
       <r>    7.2294    0.0000 </r>
       <r>    8.9746    0.0000 </r>
       <r>    8.9746    0.0000 </r>
       <r>   13.3551    0.0000 </r>
      </set>
      <set comment="kpoint 9">
       <r>   -4.7593    1.0000 </r>
       <r>   -0.5635    1.0000 </r>
       <r>    4.3682    1.0000 </r>
       <r>    4.3682    1.0000 </r>
       <r>    7.1200    0.0000 </r>
       <r>    8.9102    0.0000 </r>
       <r>    8.9102    0.0000 </r>
       <r>   13.3429    0.0000 </r>
      </set>
      <set comment="kpoint 10">
       <r>   -4.4225    1.0000 </r>
       <r>   -1.1233    1.0000 </r>
       <r>    4.3033    1.0000 </r>
       <r>    4.3033    1.0000 </r>
       <r>    7.0458    0.0000 </r>
       <r>    8.8485    0.0000 </r>
       <r>    8.8485    0.0000 </r>
       <r>   13.2591    0.0000 </r>
      </set>
      <set comment="kpoint 11">
       <r>   -4.1986    1.0000 </r>
       <r>   -1.4593    1.0000 </r>
       <r>    4.2708    1.0000 </r>
       <r>    4.2708    1.0000 </r>
       <r>    7.0084    0.0000 </r>
       <r>    8.8124    0.0000 </r>
       <r>    8.8124    0.0000 </r>
       <r>   13.2042    0.0000 </r>
      </set>
      <set comment="kpoint 12">
       <r>   -6.4584    1.0000 </r>
       <r>    5.2096    1.0000 </r>
       <r>    5.3047    1.0000 </r>
       <r>    5.3047    1.0000 </r>
       <r>    7.9346    0.0000 </r>
       <r>    8.2401    0.0000 </r>
       <r>    8.2401    0.0000 </r>
       <r>    9.0795    0.0000 </r>
      </set>
      <set comment="kpoint 13">
       <r>   -6.3890    1.0000 </r>
       <r>    4.6247    1.0000 </r>
       <r>    5.1318    1.0000 </r>
       <r>    5.2570    1.0000 </r>
       <r>    7.9267    0.0000 </r>
       <r>    8.3461    0.0000 </r>
       <r>    8.4809    0.0000 </r>
       <r>    9.5301    0.0000 </r>
      </set>
      <set comment="kpoint 14">
       <r>   -6.2610    1.0000 </r>
       <r>    3.8052    1.0000 </r>
       <r>    4.9345    1.0000 </r>
       <r>    5.1418    1.0000 </r>
       <r>    7.9991    0.0000 </r>
       <r>    8.3446    0.0000 </r>
       <r>    8.7676    0.0000 </r>
       <r>   10.2465    0.0000 </r>
      </set>
      <set comment="kpoint 15">
       <r>   -6.0757    1.0000 </r>
       <r>    2.9242    1.0000 </r>
       <r>    4.7406    1.0000 </r>
       <r>    4.9710    1.0000 </r>
       <r>    7.9402    0.0000 </r>
       <r>    8.4753    0.0000 </r>
       <r>    9.0341    0.0000 </r>
       <r>   10.9520    0.0000 </r>
      </set>
      <set comment="kpoint 16">
       <r>   -5.8357    1.0000 </r>
       <r>    2.0424    1.0000 </r>
       <r>    4.5664    1.0000 </r>
       <r>    4.7811    1.0000 </r>
       <r>    7.7878    0.0000 </r>
       <r>    8.6620    0.0000 </r>
       <r>    9.2167    0.0000 </r>
       <r>   11.4426    0.0000 </r>
      </set>
      <set comment="kpoint 17">
       <r>   -5.5454    1.0000 </r>
       <r>    1.1909    1.0000 </r>
       <r>    4.4213    1.0000 </r>
       <r>    4.5950    1.0000 </r>
       <r>    7.6262    0.0000 </r>
       <r>    8.7787    0.0000 </r>
       <r>    9.2810    0.0000 </r>
       <r>   11.8153    0.0000 </r>
      </set>
      <set comment="kpoint 18">
       <r>   -5.2129    1.0000 </r>
       <r>    0.3913    1.0000 </r>
       <r>    4.3101    1.0000 </r>
       <r>    4.4258    1.0000 </r>
       <r>    7.4815    0.0000 </r>
       <r>    8.8066    0.0000 </r>
       <r>    9.2437    0.0000 </r>
       <r>   12.2839    0.0000 </r>
      </set>
      <set comment="kpoint 19">
       <r>   -4.8539    1.0000 </r>
       <r>   -0.3326    1.0000 </r>
       <r>    4.2349    1.0000 </r>
       <r>    4.2806    1.0000 </r>
       <r>    7.3642    0.0000 </r>
       <r>    8.7840    0.0000 </r>
       <r>    9.1512    0.0000 </r>
       <r>   12.8344    0.0000 </r>
      </set>
      <set comment="kpoint 20">
       <r>   -4.5016    1.0000 </r>
       <r>   -0.9430    1.0000 </r>
       <r>    4.1635    1.0000 </r>
       <r>    4.1962    1.0000 </r>
       <r>    7.2795    0.0000 </r>
       <r>    8.7551    0.0000 </r>
       <r>    9.0469    0.0000 </r>
       <r>   13.2239    0.0000 </r>
      </set>
      <set comment="kpoint 21">
       <r>   -4.2267    1.0000 </r>
       <r>   -1.3661    1.0000 </r>
       <r>    4.0774    1.0000 </r>
       <r>    4.1936    1.0000 </r>
       <r>    7.2298    0.0000 </r>
       <r>    8.7483    0.0000 </r>
       <r>    8.9592    0.0000 </r>
       <r>   13.3035    0.0000 </r>
      </set>
      <set comment="kpoint 22">
       <r>   -4.1435    1.0000 </r>
       <r>   -1.4864    1.0000 </r>
       <r>    4.0243    1.0000 </r>
       <r>    4.2259    1.0000 </r>
       <r>    7.2165    0.0000 </r>
       <r>    8.7772    0.0000 </r>
       <r>    8.9031    0.0000 </r>
       <r>   13.3138    0.0000 </r>
      </set>
      <set comment="kpoint 23">
       <r>   -4.3033    1.0000 </r>
       <r>   -1.2523    1.0000 </r>
       <r>    4.0061    1.0000 </r>
       <r>    4.2916    1.0000 </r>
       <r>    7.2399    0.0000 </r>
       <r>    8.8442    0.0000 </r>
       <r>    8.8828    0.0000 </r>
       <r>   13.3337    0.0000 </r>
      </set>
      <set comment="kpoint 24">
       <r>   -4.6152    1.0000 </r>
       <r>   -0.7551    1.0000 </r>
       <r>    4.0240    1.0000 </r>
       <r>    4.3886    1.0000 </r>
       <r>    7.2996    0.0000 </r>
       <r>    8.8927    0.0000 </r>
       <r>    8.9414    0.0000 </r>
       <r>   13.3195    0.0000 </r>
      </set>
      <set comment="kpoint 25">
       <r>   -4.9753    1.0000 </r>
       <r>   -0.1010    1.0000 </r>
       <r>    4.0792    1.0000 </r>
       <r>    4.5144    1.0000 </r>
       <r>    7.3944    0.0000 </r>
       <r>    8.9150    0.0000 </r>
       <r>    9.0496    0.0000 </r>
       <r>   13.0901    0.0000 </r>
      </set>
      <set comment="kpoint 26">
       <r>   -5.3279    1.0000 </r>
       <r>    0.6513    1.0000 </r>
       <r>    4.1721    1.0000 </r>
       <r>    4.6658    1.0000 </r>
       <r>    7.5218    0.0000 </r>
       <r>    8.9167    0.0000 </r>
       <r>    9.1333    0.0000 </r>
       <r>   12.6047    0.0000 </r>
      </set>
      <set comment="kpoint 27">
       <r>   -5.6476    1.0000 </r>
       <r>    1.4701    1.0000 </r>
       <r>    4.3020    1.0000 </r>
       <r>    4.8372    1.0000 </r>
       <r>    7.6769    0.0000 </r>
       <r>    8.8541    0.0000 </r>
       <r>    9.1408    0.0000 </r>
       <r>   12.0629    0.0000 </r>
      </set>
      <set comment="kpoint 28">
       <r>   -5.9217    1.0000 </r>
       <r>    2.3330    1.0000 </r>
       <r>    4.4669    1.0000 </r>
       <r>    5.0199    1.0000 </r>
       <r>    7.8508    0.0000 </r>
       <r>    8.6996    0.0000 </r>
       <r>    9.0249    0.0000 </r>
       <r>   11.4812    0.0000 </r>
      </set>
      <set comment="kpoint 29">
       <r>   -6.1438    1.0000 </r>
       <r>    3.2147    1.0000 </r>
       <r>    4.6628    1.0000 </r>
       <r>    5.1984    1.0000 </r>
       <r>    8.0269    0.0000 </r>
       <r>    8.4772    0.0000 </r>
       <r>    8.7875    0.0000 </r>
       <r>   10.7959    0.0000 </r>
      </set>
      <set comment="kpoint 30">
       <r>   -6.3102    1.0000 </r>
       <r>    4.0706    1.0000 </r>
       <r>    4.8846    1.0000 </r>
       <r>    5.3469    1.0000 </r>
       <r>    8.1716    0.0000 </r>
       <r>    8.2553    0.0000 </r>
       <r>    8.4902    0.0000 </r>
       <r>   10.0528    0.0000 </r>
      </set>
      <set comment="kpoint 31">
       <r>   -6.4188    1.0000 </r>
       <r>    4.7837    1.0000 </r>
       <r>    5.1439    1.0000 </r>
       <r>    5.4294    1.0000 </r>
       <r>    8.1121    0.0000 </r>
       <r>    8.1812    0.0000 </r>
       <r>    8.2587    0.0000 </r>
       <r>    9.3966    0.0000 </r>
      </set>
      <set comment="kpoint 32">
       <r>   -6.3394    1.0000 </r>
       <r>    4.5989    1.0000 </r>
       <r>    4.9314    1.0000 </r>
       <r>    4.9314    1.0000 </r>
       <r>    7.6825    0.0000 </r>
       <r>    8.7590    0.0000 </r>
       <r>    8.7590    0.0000 </r>
       <r>    9.6075    0.0000 </r>
      </set>
      <set comment="kpoint 33">
       <r>   -6.2309    1.0000 </r>
       <r>    3.9753    1.0000 </r>
       <r>    4.7178    1.0000 </r>
       <r>    4.8289    1.0000 </r>
       <r>    7.6313    0.0000 </r>
       <r>    8.8794    0.0000 </r>
       <r>    9.0796    0.0000 </r>
       <r>   10.0431    0.0000 </r>
      </set>
      <set comment="kpoint 34">
       <r>   -6.0646    1.0000 </r>
       <r>    3.1633    1.0000 </r>
       <r>    4.5151    1.0000 </r>
       <r>    4.6956    1.0000 </r>
       <r>    7.7298    0.0000 </r>
       <r>    8.8238    0.0000 </r>
       <r>    9.3831    0.0000 </r>
       <r>   10.4609    0.0000 </r>
      </set>
      <set comment="kpoint 35">
       <r>   -5.8427    1.0000 </r>
       <r>    2.3128    1.0000 </r>
       <r>    4.3378    1.0000 </r>
       <r>    4.5051    1.0000 </r>
       <r>    7.8442    0.0000 </r>
       <r>    8.7867    0.0000 </r>
       <r>    9.6061    0.0000 </r>
       <r>   10.6322    0.0000 </r>
      </set>
      <set comment="kpoint 36">
       <r>   -5.5688    1.0000 </r>
       <r>    1.4715    1.0000 </r>
       <r>    4.1944    1.0000 </r>
       <r>    4.2936    1.0000 </r>
       <r>    7.8639    0.0000 </r>
       <r>    8.8081    0.0000 </r>
       <r>    9.7033    0.0000 </r>
       <r>   10.8052    0.0000 </r>
      </set>
      <set comment="kpoint 37">
       <r>   -5.2494    1.0000 </r>
       <r>    0.6677    1.0000 </r>
       <r>    4.0859    1.0000 </r>
       <r>    4.0893    1.0000 </r>
       <r>    7.8020    0.0000 </r>
       <r>    8.8222    0.0000 </r>
       <r>    9.6790    0.0000 </r>
       <r>   11.1646    0.0000 </r>
      </set>
      <set comment="kpoint 38">
       <r>   -4.8968    1.0000 </r>
       <r>   -0.0744    1.0000 </r>
       <r>    3.8960    1.0000 </r>
       <r>    4.0247    1.0000 </r>
       <r>    7.7179    0.0000 </r>
       <r>    8.7991    0.0000 </r>
       <r>    9.5772    0.0000 </r>
       <r>   11.7153    0.0000 </r>
      </set>
      <set comment="kpoint 39">
       <r>   -4.5365    1.0000 </r>
       <r>   -0.7220    1.0000 </r>
       <r>    3.7320    1.0000 </r>
       <r>    4.0010    1.0000 </r>
       <r>    7.6463    0.0000 </r>
       <r>    8.7670    0.0000 </r>
       <r>    9.4462    0.0000 </r>
       <r>   12.3842    0.0000 </r>
      </set>
      <set comment="kpoint 40">
       <r>   -4.2241    1.0000 </r>
       <r>   -1.2154    1.0000 </r>
       <r>    3.5991    1.0000 </r>
       <r>    4.0177    1.0000 </r>
       <r>    7.6024    0.0000 </r>
       <r>    8.7552    0.0000 </r>
       <r>    9.3197    0.0000 </r>
       <r>   13.0558    0.0000 </r>
      </set>
      <set comment="kpoint 41">
       <r>   -4.0642    1.0000 </r>
       <r>   -1.4476    1.0000 </r>
       <r>    3.5013    1.0000 </r>
       <r>    4.0731    1.0000 </r>
       <r>    7.5922    0.0000 </r>
       <r>    8.7792    0.0000 </r>
       <r>    9.2170    0.0000 </r>
       <r>   13.4946    0.0000 </r>
      </set>
      <set comment="kpoint 42">
       <r>   -4.1487    1.0000 </r>
       <r>   -1.3259    1.0000 </r>
       <r>    3.4416    1.0000 </r>
       <r>    4.1650    1.0000 </r>
       <r>    7.6172    0.0000 </r>
       <r>    8.8443    0.0000 </r>
       <r>    9.1463    0.0000 </r>
       <r>   13.5837    0.0000 </r>
      </set>
      <set comment="kpoint 43">
       <r>   -4.4249    1.0000 </r>
       <r>   -0.9037    1.0000 </r>
       <r>    3.4226    1.0000 </r>
       <r>    4.2901    1.0000 </r>
       <r>    7.6765    0.0000 </r>
       <r>    8.9467    0.0000 </r>
       <r>    9.1055    0.0000 </r>
       <r>   13.3948    0.0000 </r>
      </set>
      <set comment="kpoint 44">
       <r>   -4.7777    1.0000 </r>
       <r>   -0.2980    1.0000 </r>
       <r>    3.4466    1.0000 </r>
       <r>    4.4442    1.0000 </r>
       <r>    7.7681    0.0000 </r>
       <r>    9.0717    0.0000 </r>
       <r>    9.0810    0.0000 </r>
       <r>   12.9197    0.0000 </r>
      </set>
      <set comment="kpoint 45">
       <r>   -5.1365    1.0000 </r>
       <r>    0.4165    1.0000 </r>
       <r>    3.5161    1.0000 </r>
       <r>    4.6213    1.0000 </r>
       <r>    7.8887    0.0000 </r>
       <r>    9.0439    0.0000 </r>
       <r>    9.1869    0.0000 </r>
       <r>   12.3324    0.0000 </r>
      </set>
      <set comment="kpoint 46">
       <r>   -5.4685    1.0000 </r>
       <r>    1.1993    1.0000 </r>
       <r>    3.6336    1.0000 </r>
       <r>    4.8132    1.0000 </r>
       <r>    8.0331    0.0000 </r>
       <r>    8.9531    0.0000 </r>
       <r>    9.2329    0.0000 </r>
       <r>   11.7964    0.0000 </r>
      </set>
      <set comment="kpoint 47">
       <r>   -5.7583    1.0000 </r>
       <r>    2.0197    1.0000 </r>
       <r>    3.8041    1.0000 </r>
       <r>    5.0069    1.0000 </r>
       <r>    8.1919    0.0000 </r>
       <r>    8.7821    0.0000 </r>
       <r>    9.1335    0.0000 </r>
       <r>   11.3813    0.0000 </r>
      </set>
      <set comment="kpoint 48">
       <r>   -5.9977    1.0000 </r>
       <r>    2.8363    1.0000 </r>
       <r>    4.0418    1.0000 </r>
       <r>    5.1817    1.0000 </r>
       <r>    8.3471    0.0000 </r>
       <r>    8.5583    0.0000 </r>
       <r>    8.8670    0.0000 </r>
       <r>   11.0230    0.0000 </r>
      </set>
      <set comment="kpoint 49">
       <r>   -6.1826    1.0000 </r>
       <r>    3.5607    1.0000 </r>
       <r>    4.3915    1.0000 </r>
       <r>    5.3069    1.0000 </r>
       <r>    8.3565    0.0000 </r>
       <r>    8.4375    0.0000 </r>
       <r>    8.5373    0.0000 </r>
       <r>   10.5703    0.0000 </r>
      </set>
      <set comment="kpoint 50">
       <r>   -6.1419    1.0000 </r>
       <r>    3.8348    1.0000 </r>
       <r>    4.4920    1.0000 </r>
       <r>    4.4920    1.0000 </r>
       <r>    7.3484    0.0000 </r>
       <r>    9.4386    0.0000 </r>
       <r>    9.4386    0.0000 </r>
       <r>    9.9008    0.0000 </r>
      </set>
      <set comment="kpoint 51">
       <r>   -5.9948    1.0000 </r>
       <r>    3.2496    1.0000 </r>
       <r>    4.2803    1.0000 </r>
       <r>    4.3282    1.0000 </r>
       <r>    7.2861    0.0000 </r>
       <r>    9.4966    0.0000 </r>
       <r>    9.7898    0.0000 </r>
       <r>   10.0224    0.0000 </r>
      </set>
      <set comment="kpoint 52">
       <r>   -5.7913    1.0000 </r>
       <r>    2.4980    1.0000 </r>
       <r>    4.0966    1.0000 </r>
       <r>    4.1423    1.0000 </r>
       <r>    7.3957    0.0000 </r>
       <r>    9.3918    0.0000 </r>
       <r>   10.0605    0.0000 </r>
       <r>   10.0699    0.0000 </r>
      </set>
      <set comment="kpoint 53">
       <r>   -5.5345    1.0000 </r>
       <r>    1.7072    1.0000 </r>
       <r>    3.9105    1.0000 </r>
       <r>    3.9492    1.0000 </r>
       <r>    7.5434    0.0000 </r>
       <r>    9.3823    0.0000 </r>
       <r>   10.0256    0.0000 </r>
       <r>   10.2223    0.0000 </r>
      </set>
      <set comment="kpoint 54">
       <r>   -5.2296    1.0000 </r>
       <r>    0.9258    1.0000 </r>
       <r>    3.6658    1.0000 </r>
       <r>    3.8427    1.0000 </r>
       <r>    7.6214    0.0000 </r>
       <r>    9.4186    0.0000 </r>
       <r>   10.1547    0.0000 </r>
       <r>   10.2338    0.0000 </r>
      </set>
      <set comment="kpoint 55">
       <r>   -4.8863    1.0000 </r>
       <r>    0.1856    1.0000 </r>
       <r>    3.4315    1.0000 </r>
       <r>    3.7795    1.0000 </r>
       <r>    7.6267    0.0000 </r>
       <r>    9.3744    0.0000 </r>
       <r>   10.1425    0.0000 </r>
       <r>   10.5972    0.0000 </r>
      </set>
      <set comment="kpoint 56">
       <r>   -4.5242    1.0000 </r>
       <r>   -0.4816    1.0000 </r>
       <r>    3.2214    1.0000 </r>
       <r>    3.7604    1.0000 </r>
       <r>    7.6096    0.0000 </r>
       <r>    9.2958    0.0000 </r>
       <r>   10.0012    0.0000 </r>
       <r>   11.2554    0.0000 </r>
      </set>
      <set comment="kpoint 57">
       <r>   -4.1860    1.0000 </r>
       <r>   -1.0257    1.0000 </r>
       <r>    3.0436    1.0000 </r>
       <r>    3.7851    1.0000 </r>
       <r>    7.6082    0.0000 </r>
       <r>    9.2312    0.0000 </r>
       <r>    9.8504    0.0000 </r>
       <r>   12.0315    0.0000 </r>
      </set>
      <set comment="kpoint 58">
       <r>   -3.9609    1.0000 </r>
       <r>   -1.3535    1.0000 </r>
       <r>    2.9038    1.0000 </r>
       <r>    3.8521    1.0000 </r>
       <r>    7.6403    0.0000 </r>
       <r>    9.1978    0.0000 </r>
       <r>    9.7141    0.0000 </r>
       <r>   12.8631    0.0000 </r>
      </set>
      <set comment="kpoint 59">
       <r>   -3.9638    1.0000 </r>
       <r>   -1.3484    1.0000 </r>
       <r>    2.8062    1.0000 </r>
       <r>    3.9589    1.0000 </r>
       <r>    7.7114    0.0000 </r>
       <r>    9.2023    0.0000 </r>
       <r>    9.6036    0.0000 </r>
       <r>   13.6464    0.0000 </r>
      </set>
      <set comment="kpoint 60">
       <r>   -4.1925    1.0000 </r>
       <r>   -1.0128    1.0000 </r>
       <r>    2.7549    1.0000 </r>
       <r>    4.1020    1.0000 </r>
       <r>    7.8196    0.0000 </r>
       <r>    9.2452    0.0000 </r>
       <r>    9.5196    0.0000 </r>
       <r>   13.4791    0.0000 </r>
      </set>
      <set comment="kpoint 61">
       <r>   -4.5316    1.0000 </r>
       <r>   -0.4652    1.0000 </r>
       <r>    2.7540    1.0000 </r>
       <r>    4.2761    1.0000 </r>
       <r>    7.9586    0.0000 </r>
       <r>    9.3195    0.0000 </r>
       <r>    9.4503    0.0000 </r>
       <r>   12.8058    0.0000 </r>
      </set>
      <set comment="kpoint 62">
       <r>   -4.8933    1.0000 </r>
       <r>    0.1999    1.0000 </r>
       <r>    2.8092    1.0000 </r>
       <r>    4.4739    1.0000 </r>
       <r>    8.1189    0.0000 </r>
       <r>    9.3679    0.0000 </r>
       <r>    9.4007    0.0000 </r>
       <r>   12.1286    0.0000 </r>
      </set>
      <set comment="kpoint 63">
       <r>   -5.2357    1.0000 </r>
       <r>    0.9265    1.0000 </r>
       <r>    2.9308    1.0000 </r>
       <r>    4.6843    1.0000 </r>
       <r>    8.2880    0.0000 </r>
       <r>    9.2305    0.0000 </r>
       <r>    9.4278    0.0000 </r>
       <r>   11.5638    0.0000 </r>
      </set>
      <set comment="kpoint 64">
       <r>   -5.5396    1.0000 </r>
       <r>    1.6627    1.0000 </r>
       <r>    3.1425    1.0000 </r>
       <r>    4.8907    1.0000 </r>
       <r>    8.4449    0.0000 </r>
       <r>    9.0152    0.0000 </r>
       <r>    9.3009    0.0000 </r>
       <r>   11.2224    0.0000 </r>
      </set>
      <set comment="kpoint 65">
       <r>   -5.7953    1.0000 </r>
       <r>    2.3280    1.0000 </r>
       <r>    3.4979    1.0000 </r>
       <r>    5.0679    1.0000 </r>
       <r>    8.5291    0.0000 </r>
       <r>    8.7629    0.0000 </r>
       <r>    9.0235    0.0000 </r>
       <r>   11.1061    0.0000 </r>
      </set>
      <set comment="kpoint 66">
       <r>   -5.8667    1.0000 </r>
       <r>    3.0103    1.0000 </r>
       <r>    4.0596    1.0000 </r>
       <r>    4.0596    1.0000 </r>
       <r>    6.9968    0.0000 </r>
       <r>    9.4904    0.0000 </r>
       <r>   10.2025    0.0000 </r>
       <r>   10.2025    0.0000 </r>
      </set>
      <set comment="kpoint 67">
       <r>   -5.6818    1.0000 </r>
       <r>    2.4724    1.0000 </r>
       <r>    3.8540    1.0000 </r>
       <r>    3.8675    1.0000 </r>
       <r>    6.9456    0.0000 </r>
       <r>    9.1980    0.0000 </r>
       <r>   10.4583    0.0000 </r>
       <r>   10.5594    0.0000 </r>
      </set>
      <set comment="kpoint 68">
       <r>   -5.4426    1.0000 </r>
       <r>    1.8050    1.0000 </r>
       <r>    3.6004    1.0000 </r>
       <r>    3.7125    1.0000 </r>
       <r>    7.0706    0.0000 </r>
       <r>    9.0540    0.0000 </r>
       <r>   10.4750    0.0000 </r>
       <r>   10.7930    0.0000 </r>
      </set>
      <set comment="kpoint 69">
       <r>   -5.1533    1.0000 </r>
       <r>    1.0968    1.0000 </r>
       <r>    3.3110    1.0000 </r>
       <r>    3.5996    1.0000 </r>
       <r>    7.2214    0.0000 </r>
       <r>    9.1540    0.0000 </r>
       <r>   10.3845    0.0000 </r>
       <r>   10.8674    0.0000 </r>
      </set>
      <set comment="kpoint 70">
       <r>   -4.8215    1.0000 </r>
       <r>    0.3950    1.0000 </r>
       <r>    3.0221    1.0000 </r>
       <r>    3.5317    1.0000 </r>
       <r>    7.2983    0.0000 </r>
       <r>    9.5386    0.0000 </r>
       <r>   10.2635    0.0000 </r>
       <r>   10.8083    0.0000 </r>
      </set>
      <set comment="kpoint 71">
       <r>   -4.4624    1.0000 </r>
       <r>   -0.2631    1.0000 </r>
       <r>    2.7565    1.0000 </r>
       <r>    3.5099    1.0000 </r>
       <r>    7.3217    0.0000 </r>
       <r>   10.1123    0.0000 </r>
       <r>   10.1828    0.0000 </r>
       <r>   10.6732    0.0000 </r>
      </set>
      <set comment="kpoint 72">
       <r>   -4.1085    1.0000 </r>
       <r>   -0.8316    1.0000 </r>
       <r>    2.5267    1.0000 </r>
       <r>    3.5341    1.0000 </r>
       <r>    7.3451    0.0000 </r>
       <r>   10.0402    0.0000 </r>
       <r>   10.5110    0.0000 </r>
       <r>   10.9149    0.0000 </r>
      </set>
      <set comment="kpoint 73">
       <r>   -3.8318    1.0000 </r>
       <r>   -1.2307    1.0000 </r>
       <r>    2.3404    1.0000 </r>
       <r>    3.6033    1.0000 </r>
       <r>    7.4000    0.0000 </r>
       <r>    9.9668    0.0000 </r>
       <r>   10.3523    0.0000 </r>
       <r>   11.7718    0.0000 </r>
      </set>
      <set comment="kpoint 74">
       <r>   -3.7532    1.0000 </r>
       <r>   -1.3359    1.0000 </r>
       <r>    2.2032    1.0000 </r>
       <r>    3.7152    1.0000 </r>
       <r>    7.4983    0.0000 </r>
       <r>    9.9239    0.0000 </r>
       <r>   10.2117    0.0000 </r>
       <r>   12.6900    0.0000 </r>
      </set>
      <set comment="kpoint 75">
       <r>   -3.9238    1.0000 </r>
       <r>   -1.0963    1.0000 </r>
       <r>    2.1208    1.0000 </r>
       <r>    3.8662    1.0000 </r>
       <r>    7.6412    0.0000 </r>
       <r>    9.9126    0.0000 </r>
       <r>   10.0915    0.0000 </r>
       <r>   13.4768    0.0000 </r>
      </set>
      <set comment="kpoint 76">
       <r>   -4.2421    1.0000 </r>
       <r>   -0.6183    1.0000 </r>
       <r>    2.1006    1.0000 </r>
       <r>    4.0511    1.0000 </r>
       <r>    7.8231    0.0000 </r>
       <r>    9.9271    0.0000 </r>
       <r>    9.9790    0.0000 </r>
       <r>   12.7251    0.0000 </r>
      </set>
      <set comment="kpoint 77">
       <r>   -4.6028    1.0000 </r>
       <r>   -0.0207    1.0000 </r>
       <r>    2.1559    1.0000 </r>
       <r>    4.2617    1.0000 </r>
       <r>    8.0314    0.0000 </r>
       <r>    9.8407    0.0000 </r>
       <r>    9.9436    0.0000 </r>
       <r>   11.9932    0.0000 </r>
      </set>
      <set comment="kpoint 78">
       <r>   -4.9531    1.0000 </r>
       <r>    0.6133    1.0000 </r>
       <r>    2.3137    1.0000 </r>
       <r>    4.4858    1.0000 </r>
       <r>    8.2439    0.0000 </r>
       <r>    9.6278    0.0000 </r>
       <r>    9.8874    0.0000 </r>
       <r>   11.4241    0.0000 </r>
      </set>
      <set comment="kpoint 79">
       <r>   -5.2691    1.0000 </r>
       <r>    1.1991    1.0000 </r>
       <r>    2.6271    1.0000 </r>
       <r>    4.7048    1.0000 </r>
       <r>    8.4174    0.0000 </r>
       <r>    9.3293    0.0000 </r>
       <r>    9.6393    0.0000 </r>
       <r>   11.1749    0.0000 </r>
      </set>
      <set comment="kpoint 80">
       <r>   -5.5154    1.0000 </r>
       <r>    2.1617    1.0000 </r>
       <r>    3.6659    1.0000 </r>
       <r>    3.6659    1.0000 </r>
       <r>    6.6709    0.0000 </r>
       <r>    8.7822    0.0000 </r>
       <r>   11.0159    0.0000 </r>
       <r>   11.0159    0.0000 </r>
      </set>
      <set comment="kpoint 81">
       <r>   -5.2940    1.0000 </r>
       <r>    1.6627    1.0000 </r>
       <r>    3.4403    1.0000 </r>
       <r>    3.5013    1.0000 </r>
       <r>    6.6439    0.0000 </r>
       <r>    8.4937    0.0000 </r>
       <r>   11.2701    0.0000 </r>
       <r>   11.3640    0.0000 </r>
      </set>
      <set comment="kpoint 82">
       <r>   -5.0210    1.0000 </r>
       <r>    1.0788    1.0000 </r>
       <r>    3.1268    1.0000 </r>
       <r>    3.3791    1.0000 </r>
       <r>    6.7855    0.0000 </r>
       <r>    8.4071    0.0000 </r>
       <r>   11.2920    0.0000 </r>
       <r>   11.5389    0.0000 </r>
      </set>
      <set comment="kpoint 83">
       <r>   -4.7024    1.0000 </r>
       <r>    0.4647    1.0000 </r>
       <r>    2.7757    1.0000 </r>
       <r>    3.3026    1.0000 </r>
       <r>    6.9266    0.0000 </r>
       <r>    8.6090    0.0000 </r>
       <r>   11.2142    0.0000 </r>
       <r>   11.5416    0.0000 </r>
      </set>
      <set comment="kpoint 84">
       <r>   -4.3500    1.0000 </r>
       <r>   -0.1409    1.0000 </r>
       <r>    2.4369    1.0000 </r>
       <r>    3.2734    1.0000 </r>
       <r>    6.9935    0.0000 </r>
       <r>    9.1027    0.0000 </r>
       <r>   11.1081    0.0000 </r>
       <r>   11.4318    0.0000 </r>
      </set>
      <set comment="kpoint 85">
       <r>   -3.9882    1.0000 </r>
       <r>   -0.6954    1.0000 </r>
       <r>    2.1374    1.0000 </r>
       <r>    3.2917    1.0000 </r>
       <r>    7.0346    0.0000 </r>
       <r>    9.7907    0.0000 </r>
       <r>   11.0120    0.0000 </r>
       <r>   11.2712    0.0000 </r>
      </set>
      <set comment="kpoint 86">
       <r>   -3.6735    1.0000 </r>
       <r>   -1.1306    1.0000 </r>
       <r>    1.8909    1.0000 </r>
       <r>    3.3567    1.0000 </r>
       <r>    7.0985    0.0000 </r>
       <r>   10.5296    0.0000 </r>
       <r>   11.0086    0.0000 </r>
       <r>   11.0993    0.0000 </r>
      </set>
      <set comment="kpoint 87">
       <r>   -3.5202    1.0000 </r>
       <r>   -1.3260    1.0000 </r>
       <r>    1.7056    1.0000 </r>
       <r>    3.4667    1.0000 </r>
       <r>    7.2056    0.0000 </r>
       <r>   10.7483    0.0000 </r>
       <r>   10.9354    0.0000 </r>
       <r>   11.6333    0.0000 </r>
      </set>
      <set comment="kpoint 88">
       <r>   -3.6256    1.0000 </r>
       <r>   -1.1847    1.0000 </r>
       <r>    1.5901    1.0000 </r>
       <r>    3.6182    1.0000 </r>
       <r>    7.3609    0.0000 </r>
       <r>   10.7290    0.0000 </r>
       <r>   10.7818    0.0000 </r>
       <r>   12.5642    0.0000 </r>
      </set>
      <set comment="kpoint 89">
       <r>   -3.9171    1.0000 </r>
       <r>   -0.7887    1.0000 </r>
       <r>    1.5583    1.0000 </r>
       <r>    3.8063    1.0000 </r>
       <r>    7.5610    0.0000 </r>
       <r>   10.6191    0.0000 </r>
       <r>   10.7038    0.0000 </r>
       <r>   12.6672    0.0000 </r>
      </set>
      <set comment="kpoint 90">
       <r>   -4.2728    1.0000 </r>
       <r>   -0.2859    1.0000 </r>
       <r>    1.6369    1.0000 </r>
       <r>    4.0229    1.0000 </r>
       <r>    7.7947    0.0000 </r>
       <r>   10.3953    0.0000 </r>
       <r>   10.6431    0.0000 </r>
       <r>   11.9424    0.0000 </r>
      </set>
      <set comment="kpoint 91">
       <r>   -4.6277    1.0000 </r>
       <r>    0.2084    1.0000 </r>
       <r>    1.8737    1.0000 </r>
       <r>    4.2558    1.0000 </r>
       <r>    8.0389    0.0000 </r>
       <r>   10.0527    0.0000 </r>
       <r>   10.3915    0.0000 </r>
       <r>   11.4869    0.0000 </r>
      </set>
      <set comment="kpoint 92">
       <r>   -5.0901    1.0000 </r>
       <r>    1.3057    1.0000 </r>
       <r>    3.3259    1.0000 </r>
       <r>    3.3259    1.0000 </r>
       <r>    6.3974    0.0000 </r>
       <r>    8.0782    0.0000 </r>
       <r>   11.8617    0.0000 </r>
       <r>   11.8617    0.0000 </r>
      </set>
      <set comment="kpoint 93">
       <r>   -4.8337    1.0000 </r>
       <r>    0.8373    1.0000 </r>
       <r>    3.0977    1.0000 </r>
       <r>    3.1928    1.0000 </r>
       <r>    6.4021    0.0000 </r>
       <r>    7.8377    0.0000 </r>
       <r>   12.1276    0.0000 </r>
       <r>   12.1920    0.0000 </r>
      </set>
      <set comment="kpoint 94">
       <r>   -4.5295    1.0000 </r>
       <r>    0.3236    1.0000 </r>
       <r>    2.7449    1.0000 </r>
       <r>    3.1055    1.0000 </r>
       <r>    6.5572    0.0000 </r>
       <r>    7.8389    0.0000 </r>
       <r>   12.1611    0.0000 </r>
       <r>   12.3058    0.0000 </r>
      </set>
      <set comment="kpoint 95">
       <r>   -4.1864    1.0000 </r>
       <r>   -0.2000    1.0000 </r>
       <r>    2.3455    1.0000 </r>
       <r>    3.0660    1.0000 </r>
       <r>    6.6801    0.0000 </r>
       <r>    8.1677    0.0000 </r>
       <r>   12.0932    0.0000 </r>
       <r>   12.2508    0.0000 </r>
      </set>
      <set comment="kpoint 96">
       <r>   -3.8230    1.0000 </r>
       <r>   -0.7020    1.0000 </r>
       <r>    1.9649    1.0000 </r>
       <r>    3.0749    1.0000 </r>
       <r>    6.7436    0.0000 </r>
       <r>    8.7751    0.0000 </r>
       <r>   11.9942    0.0000 </r>
       <r>   12.1076    0.0000 </r>
      </set>
      <set comment="kpoint 97">
       <r>   -3.4823    1.0000 </r>
       <r>   -1.1312    1.0000 </r>
       <r>    1.6397    1.0000 </r>
       <r>    3.1318    1.0000 </r>
       <r>    6.8120    0.0000 </r>
       <r>    9.5487    0.0000 </r>
       <r>   11.8990    0.0000 </r>
       <r>   11.9315    0.0000 </r>
      </set>
      <set comment="kpoint 98">
       <r>   -3.2662    1.0000 </r>
       <r>   -1.3823    1.0000 </r>
       <r>    1.3904    1.0000 </r>
       <r>    3.2352    1.0000 </r>
       <r>    6.9202    0.0000 </r>
       <r>   10.4118    0.0000 </r>
       <r>   11.7481    0.0000 </r>
       <r>   11.8346    0.0000 </r>
      </set>
      <set comment="kpoint 99">
       <r>   -3.3076    1.0000 </r>
       <r>   -1.3265    1.0000 </r>
       <r>    1.2343    1.0000 </r>
       <r>    3.3822    1.0000 </r>
       <r>    7.0780    0.0000 </r>
       <r>   11.2275    0.0000 </r>
       <r>   11.5559    0.0000 </r>
       <r>   11.9043    0.0000 </r>
      </set>
      <set comment="kpoint 100">
       <r>   -3.5707    1.0000 </r>
       <r>   -1.0170    1.0000 </r>
       <r>    1.1958    1.0000 </r>
       <r>    3.5681    1.0000 </r>
       <r>    7.2843    0.0000 </r>
       <r>   11.3125    0.0000 </r>
       <r>   11.4747    0.0000 </r>
       <r>   12.4947    0.0000 </r>
      </set>
      <set comment="kpoint 101">
       <r>   -3.9181    1.0000 </r>
       <r>   -0.6294    1.0000 </r>
       <r>    1.3155    1.0000 </r>
       <r>    3.7856    1.0000 </r>
       <r>    7.5301    0.0000 </r>
       <r>   10.9279    0.0000 </r>
       <r>   11.2610    0.0000 </r>
       <r>   12.0957    0.0000 </r>
      </set>
[...]
       <r>   -1.9333    1.0000 </r>
       <r>    1.8908    1.0000 </r>
       <r>    2.0254    1.0000 </r>
       <r>    7.7095    0.0000 </r>
       <r>    7.8300    0.0000 </r>
       <r>   12.4270    0.0000 </r>
       <r>   13.2817    0.0000 </r>
      </set>
      <set comment="kpoint 276">
       <r>   -2.3613    1.0000 </r>
       <r>   -2.1074    1.0000 </r>
       <r>    1.6079    1.0000 </r>
       <r>    2.0567    1.0000 </r>
       <r>    7.8768    0.0000 </r>
       <r>    8.5889    0.0000 </r>
       <r>   12.1853    0.0000 </r>
       <r>   12.2944    0.0000 </r>
      </set>
      <set comment="kpoint 277">
       <r>   -3.5946    1.0000 </r>
       <r>   -0.8503    1.0000 </r>
       <r>    1.5710    1.0000 </r>
       <r>    2.6666    1.0000 </r>
       <r>    8.6890    0.0000 </r>
       <r>    9.1957    0.0000 </r>
       <r>    9.8346    0.0000 </r>
       <r>   13.5160    0.0000 </r>
      </set>
      <set comment="kpoint 278">
       <r>   -3.2452    1.0000 </r>
       <r>   -1.2149    1.0000 </r>
       <r>    1.4136    1.0000 </r>
       <r>    2.4737    1.0000 </r>
       <r>    8.9452    0.0000 </r>
       <r>    9.4014    0.0000 </r>
       <r>   10.0096    0.0000 </r>
       <r>   12.8111    0.0000 </r>
      </set>
      <set comment="kpoint 279">
       <r>   -2.9904    1.0000 </r>
       <r>   -1.4826    1.0000 </r>
       <r>    1.3424    1.0000 </r>
       <r>    2.3696    1.0000 </r>
       <r>    9.0250    0.0000 </r>
       <r>    9.3473    0.0000 </r>
       <r>   10.7636    0.0000 </r>
       <r>   11.8152    0.0000 </r>
      </set>
      <set comment="kpoint 280">
       <r>   -3.0560    1.0000 </r>
       <r>   -1.3802    1.0000 </r>
       <r>    1.5422    1.0000 </r>
       <r>    2.1944    1.0000 </r>
       <r>    8.6366    0.0000 </r>
       <r>    8.9478    0.0000 </r>
       <r>   10.4732    0.0000 </r>
       <r>   12.9438    0.0000 </r>
      </set>
      <set comment="kpoint 281">
       <r>   -2.7455    1.0000 </r>
       <r>   -1.6728    1.0000 </r>
       <r>    1.4249    1.0000 </r>
       <r>    2.0541    1.0000 </r>
       <r>    8.8671    0.0000 </r>
       <r>    9.5838    0.0000 </r>
       <r>   10.3464    0.0000 </r>
       <r>   11.9057    0.0000 </r>
      </set>
      <set comment="kpoint 282">
       <r>   -2.6671    1.0000 </r>
       <r>   -1.7435    1.0000 </r>
       <r>    1.3347    1.0000 </r>
       <r>    2.0764    1.0000 </r>
       <r>    9.0068    0.0000 </r>
       <r>    9.9167    0.0000 </r>
       <r>   10.6524    0.0000 </r>
       <r>   11.0560    0.0000 </r>
      </set>
      <set comment="kpoint 283">
       <r>   -2.9036    1.0000 </r>
       <r>   -1.5174    1.0000 </r>
       <r>    1.3174    1.0000 </r>
       <r>    2.2287    1.0000 </r>
       <r>    9.1693    0.0000 </r>
       <r>    9.6724    0.0000 </r>
       <r>   10.1804    0.0000 </r>
       <r>   11.7651    0.0000 </r>
      </set>
      <set comment="kpoint 284">
       <r>   -2.4956    1.0000 </r>
       <r>   -1.9315    1.0000 </r>
       <r>    1.6302    1.0000 </r>
       <r>    1.8458    1.0000 </r>
       <r>    8.6594    0.0000 </r>
       <r>    8.7625    0.0000 </r>
       <r>   11.2240    0.0000 </r>
       <r>   12.0526    0.0000 </r>
      </set>
      <set comment="kpoint 285">
       <r>   -2.3788    1.0000 </r>
       <r>   -2.0225    1.0000 </r>
       <r>    1.4730    1.0000 </r>
       <r>    1.8647    1.0000 </r>
       <r>    8.8399    0.0000 </r>
       <r>    9.5712    0.0000 </r>
       <r>   11.0347    0.0000 </r>
       <r>   11.1012    0.0000 </r>
      </set>
      <set comment="kpoint 286">
       <r>   -2.4249    1.0000 </r>
       <r>   -1.9603    1.0000 </r>
       <r>    1.4816    1.0000 </r>
       <r>    1.7880    1.0000 </r>
       <r>    9.5827    0.0000 </r>
       <r>    9.6547    0.0000 </r>
       <r>   10.2989    0.0000 </r>
       <r>   10.9297    0.0000 </r>
      </set>
     </set>
    </set>
   </array>
  </eigenvalues>
  <separator name="orbital magnetization" >
   <v name="MAGDIPOLOUT">      0.00000000      0.00000000      0.00000000</v>
  </separator>
  <dos>
   <i name="efermi">      5.69114728 </i>
   <total>
    <array>
     <dimension dim="1">gridpoints</dimension>
     <dimension dim="2">spin</dimension>
     <field>energy</field>
     <field>total</field>
     <field>integrated</field>
     <set>
      <set comment="spin 1">
       <r>    -7.5961     0.0000     0.0000 </r>
       <r>    -7.5156     0.0000     0.0000 </r>
       <r>    -7.4350     0.0000     0.0000 </r>
       <r>    -7.3545     0.0000     0.0000 </r>
       <r>    -7.2740     0.0000     0.0000 </r>
       <r>    -7.1935     0.0000     0.0000 </r>
       <r>    -7.1130     0.0000     0.0000 </r>
       <r>    -7.0324     0.0000     0.0000 </r>
       <r>    -6.9519     0.0000     0.0000 </r>
       <r>    -6.8714     0.0000     0.0000 </r>
       <r>    -6.7909     0.0000     0.0000 </r>
       <r>    -6.7104     0.0000     0.0000 </r>
       <r>    -6.6298     0.0000     0.0000 </r>
       <r>    -6.5493     0.0005     0.0000 </r>
       <r>    -6.4688     0.0218     0.0018 </r>
       <r>    -6.3883     0.0871     0.0088 </r>
       <r>    -6.3078     0.1287     0.0192 </r>
       <r>    -6.2272     0.1695     0.0328 </r>
       <r>    -6.1467     0.1919     0.0483 </r>
       <r>    -6.0662     0.2249     0.0664 </r>
       <r>    -5.9857     0.2195     0.0841 </r>
       <r>    -5.9051     0.3065     0.1087 </r>
       <r>    -5.8246     0.2347     0.1276 </r>
       <r>    -5.7441     0.3184     0.1533 </r>
       <r>    -5.6636     0.3615     0.1824 </r>
       <r>    -5.5831     0.2735     0.2044 </r>
       <r>    -5.5025     0.3704     0.2342 </r>
       <r>    -5.4220     0.4226     0.2683 </r>
       <r>    -5.3415     0.3700     0.2981 </r>
       <r>    -5.2610     0.3289     0.3245 </r>
       <r>    -5.1805     0.5348     0.3676 </r>
       <r>    -5.0999     0.4128     0.4008 </r>
       <r>    -5.0194     0.4594     0.4378 </r>
       <r>    -4.9389     0.4099     0.4708 </r>
       <r>    -4.8584     0.5782     0.5174 </r>
       <r>    -4.7779     0.5615     0.5626 </r>
       <r>    -4.6973     0.4593     0.5996 </r>
       <r>    -4.6168     0.5106     0.6407 </r>
       <r>    -4.5363     0.6690     0.6946 </r>
       <r>    -4.4558     0.6762     0.7490 </r>
       <r>    -4.3752     0.5779     0.7956 </r>
       <r>    -4.2947     0.5815     0.8424 </r>
       <r>    -4.2142     0.8337     0.9095 </r>
       <r>    -4.1337     0.9420     0.9854 </r>
       <r>    -4.0532     0.8440     1.0533 </r>
       <r>    -3.9726     0.6475     1.1055 </r>
       <r>    -3.8921     0.9896     1.1851 </r>
       <r>    -3.8116     0.8833     1.2563 </r>
       <r>    -3.7311     0.6637     1.3097 </r>
       <r>    -3.6506     0.7000     1.3661 </r>
       <r>    -3.5700     0.7599     1.4273 </r>
       <r>    -3.4895     0.7352     1.4865 </r>
       <r>    -3.4090     0.6532     1.5391 </r>
       <r>    -3.3285     0.5512     1.5834 </r>
       <r>    -3.2480     0.6094     1.6325 </r>
       <r>    -3.1674     0.7677     1.6943 </r>
       <r>    -3.0869     0.3295     1.7209 </r>
       <r>    -3.0064     0.5047     1.7615 </r>
       <r>    -2.9259     0.6635     1.8149 </r>
       <r>    -2.8453     0.4379     1.8502 </r>
       <r>    -2.7648     0.2302     1.8687 </r>
       <r>    -2.6843     0.4182     1.9024 </r>
       <r>    -2.6038     0.5557     1.9471 </r>
       <r>    -2.5233     0.1894     1.9624 </r>
       <r>    -2.4427     0.1194     1.9720 </r>
       <r>    -2.3622     0.2228     1.9899 </r>
       <r>    -2.2817     0.1803     2.0045 </r>
       <r>    -2.2012     0.0735     2.0104 </r>
       <r>    -2.1207     0.0820     2.0170 </r>
       <r>    -2.0401     0.0865     2.0239 </r>
       <r>    -1.9596     0.2831     2.0467 </r>
       <r>    -1.8791     0.4270     2.0811 </r>
       <r>    -1.7986     0.2911     2.1046 </r>
       <r>    -1.7181     0.2612     2.1256 </r>
       <r>    -1.6375     0.3250     2.1518 </r>
       <r>    -1.5570     0.8617     2.2212 </r>
       <r>    -1.4765     0.5477     2.2652 </r>
       <r>    -1.3960     0.7455     2.3253 </r>
       <r>    -1.3154     1.6684     2.4596 </r>
       <r>    -1.2349     1.5691     2.5860 </r>
       <r>    -1.1544     1.0914     2.6739 </r>
       <r>    -1.0739     0.9269     2.7485 </r>
       <r>    -0.9934     0.7768     2.8110 </r>
       <r>    -0.9128     0.8053     2.8759 </r>
       <r>    -0.8323     0.6661     2.9295 </r>
       <r>    -0.7518     0.6544     2.9822 </r>
       <r>    -0.6713     0.6917     3.0379 </r>
       <r>    -0.5908     0.5177     3.0796 </r>
       <r>    -0.5102     0.3964     3.1115 </r>
       <r>    -0.4297     0.7332     3.1706 </r>
       <r>    -0.3492     0.3585     3.1994 </r>
       <r>    -0.2687     0.4916     3.2390 </r>
       <r>    -0.1882     0.5147     3.2805 </r>
       <r>    -0.1076     0.2645     3.3018 </r>
       <r>    -0.0271     0.5083     3.3427 </r>
       <r>     0.0534     0.3393     3.3700 </r>
       <r>     0.1339     0.3428     3.3976 </r>
       <r>     0.2145     0.5250     3.4399 </r>
       <r>     0.2950     0.1599     3.4528 </r>
       <r>     0.3755     0.2361     3.4718 </r>
       <r>     0.4560     0.5447     3.5156 </r>
       <r>     0.5365     0.1511     3.5278 </r>
       <r>     0.6171     0.2249     3.5459 </r>
       <r>     0.6976     0.4588     3.5828 </r>
       <r>     0.7781     0.2052     3.5994 </r>
       <r>     0.8586     0.1154     3.6087 </r>
       <r>     0.9391     0.3224     3.6346 </r>
       <r>     1.0197     0.2282     3.6530 </r>
       <r>     1.1002     0.3468     3.6809 </r>
       <r>     1.1807     0.6651     3.7345 </r>
       <r>     1.2612     0.9236     3.8088 </r>
       <r>     1.3418     0.8557     3.8778 </r>
       <r>     1.4223     1.2806     3.9809 </r>
       <r>     1.5028     1.2393     4.0807 </r>
       <r>     1.5833     0.9124     4.1541 </r>
       <r>     1.6638     1.3235     4.2607 </r>
       <r>     1.7444     0.9005     4.3332 </r>
       <r>     1.8249     0.9627     4.4107 </r>
       <r>     1.9054     1.1844     4.5061 </r>
       <r>     1.9859     0.8469     4.5743 </r>
       <r>     2.0664     0.9919     4.6541 </r>
       <r>     2.1470     1.1241     4.7447 </r>
       <r>     2.2275     1.3645     4.8545 </r>
       <r>     2.3080     0.8948     4.9266 </r>
       <r>     2.3885     1.1200     5.0168 </r>
       <r>     2.4690     1.2700     5.1190 </r>
       <r>     2.5496     1.3061     5.2242 </r>
       <r>     2.6301     1.4408     5.3402 </r>
       <r>     2.7106     1.2737     5.4428 </r>
       <r>     2.7911     1.8562     5.5922 </r>
       <r>     2.8717     1.4763     5.7111 </r>
       <r>     2.9522     1.4735     5.8298 </r>
       <r>     3.0327     0.9018     5.9024 </r>
       <r>     3.1132     1.7152     6.0405 </r>
       <r>     3.1937     1.7470     6.1812 </r>
       <r>     3.2743     1.1886     6.2769 </r>
       <r>     3.3548     1.0858     6.3643 </r>
       <r>     3.4353     1.4388     6.4801 </r>
       <r>     3.5158     1.4077     6.5935 </r>
       <r>     3.5963     1.1561     6.6866 </r>
       <r>     3.6769     1.4074     6.7999 </r>
       <r>     3.7574     1.2349     6.8993 </r>
       <r>     3.8379     1.1282     6.9902 </r>
       <r>     3.9184     1.1596     7.0836 </r>
       <r>     3.9989     1.1273     7.1743 </r>
       <r>     4.0795     1.3478     7.2829 </r>
       <r>     4.1600     1.1416     7.3748 </r>
       <r>     4.2405     1.0087     7.4560 </r>
       <r>     4.3210     1.0875     7.5436 </r>
       <r>     4.4016     0.7557     7.6044 </r>
       <r>     4.4821     0.7317     7.6633 </r>
       <r>     4.5626     0.6485     7.7156 </r>
       <r>     4.6431     0.5490     7.7598 </r>
       <r>     4.7236     0.5116     7.8010 </r>
       <r>     4.8042     0.5538     7.8456 </r>
       <r>     4.8847     0.3217     7.8715 </r>
       <r>     4.9652     0.3816     7.9022 </r>
       <r>     5.0457     0.2541     7.9226 </r>
       <r>     5.1262     0.2607     7.9436 </r>
       <r>     5.2068     0.2977     7.9676 </r>
       <r>     5.2873     0.1792     7.9820 </r>
       <r>     5.3678     0.1244     7.9920 </r>
       <r>     5.4483     0.0761     7.9982 </r>
       <r>     5.5288     0.0222     8.0000 </r>
       <r>     5.6094     0.0004     8.0000 </r>
       <r>     5.6899     0.0000     8.0000 </r>
       <r>     5.7704     0.0000     8.0000 </r>
       <r>     5.8509     0.0000     8.0000 </r>
       <r>     5.9315     0.0000     8.0000 </r>
       <r>     6.0120     0.0044     8.0004 </r>
       <r>     6.0925     0.0353     8.0032 </r>
       <r>     6.1730     0.1215     8.0130 </r>
       <r>     6.2535     0.1799     8.0275 </r>
       <r>     6.3341     0.2659     8.0489 </r>
       <r>     6.4146     0.2893     8.0722 </r>
       <r>     6.4951     0.4386     8.1075 </r>
       <r>     6.5756     0.4417     8.1431 </r>
       <r>     6.6561     0.4636     8.1804 </r>
       <r>     6.7367     0.4066     8.2131 </r>
       <r>     6.8172     0.4965     8.2531 </r>
       <r>     6.8977     0.5851     8.3002 </r>
       <r>     6.9782     0.6369     8.3515 </r>
       <r>     7.0587     0.8573     8.4205 </r>
       <r>     7.1393     0.7273     8.4791 </r>
       <r>     7.2198     0.7059     8.5359 </r>
       <r>     7.3003     1.1611     8.6294 </r>
       <r>     7.3808     1.0783     8.7163 </r>
       <r>     7.4614     0.7183     8.7741 </r>
       <r>     7.5419     0.9989     8.8545 </r>
       <r>     7.6224     1.4291     8.9696 </r>
       <r>     7.7029     1.8381     9.1176 </r>
       <r>     7.7834     1.5120     9.2394 </r>
       <r>     7.8640     1.6902     9.3755 </r>
       <r>     7.9445     1.4853     9.4951 </r>
       <r>     8.0250     1.5690     9.6214 </r>
       <r>     8.1055     1.2267     9.7202 </r>
       <r>     8.1860     1.2268     9.8190 </r>
       <r>     8.2666     1.3592     9.9284 </r>
       <r>     8.3471     1.0113    10.0098 </r>
       <r>     8.4276     0.7941    10.0738 </r>
       <r>     8.5081     1.1401    10.1656 </r>
       <r>     8.5886     1.2655    10.2675 </r>
       <r>     8.6692     1.2999    10.3722 </r>
       <r>     8.7497     1.8598    10.5219 </r>
       <r>     8.8302     2.7472    10.7431 </r>
       <r>     8.9107     1.8637    10.8932 </r>
       <r>     8.9913     1.6365    11.0250 </r>
       <r>     9.0718     1.6005    11.1538 </r>
       <r>     9.1523     1.6658    11.2880 </r>
       <r>     9.2328     1.5750    11.4148 </r>
       <r>     9.3133     1.2826    11.5181 </r>
       <r>     9.3939     1.5659    11.6441 </r>
       <r>     9.4744     1.6674    11.7784 </r>
       <r>     9.5549     1.1892    11.8742 </r>
       <r>     9.6354     1.7195    12.0126 </r>
       <r>     9.7159     1.5076    12.1340 </r>
       <r>     9.7965     0.8503    12.2025 </r>
       <r>     9.8770     0.8062    12.2674 </r>
       <r>     9.9575     1.1521    12.3602 </r>
       <r>    10.0380     1.4397    12.4761 </r>
       <r>    10.1185     1.1805    12.5711 </r>
       <r>    10.1991     1.2734    12.6737 </r>
       <r>    10.2796     1.3513    12.7825 </r>
       <r>    10.3601     1.5722    12.9091 </r>
       <r>    10.4406     1.3947    13.0214 </r>
       <r>    10.5212     1.1462    13.1137 </r>
       <r>    10.6017     0.9834    13.1929 </r>
       <r>    10.6822     1.0396    13.2766 </r>
       <r>    10.7627     1.3848    13.3881 </r>
       <r>    10.8432     0.9242    13.4625 </r>
       <r>    10.9238     1.0329    13.5457 </r>
       <r>    11.0043     1.2629    13.6474 </r>
       <r>    11.0848     1.1593    13.7407 </r>
       <r>    11.1653     1.3359    13.8483 </r>
       <r>    11.2458     1.2145    13.9461 </r>
       <r>    11.3264     1.3587    14.0555 </r>
       <r>    11.4069     0.7994    14.1198 </r>
       <r>    11.4874     0.8542    14.1886 </r>
       <r>    11.5679     0.9456    14.2648 </r>
       <r>    11.6484     0.8110    14.3301 </r>
       <r>    11.7290     0.8893    14.4017 </r>
       <r>    11.8095     0.8172    14.4675 </r>
       <r>    11.8900     0.9695    14.5455 </r>
       <r>    11.9705     0.9886    14.6251 </r>
       <r>    12.0511     1.2413    14.7251 </r>
       <r>    12.1316     1.5850    14.8527 </r>
       <r>    12.2121     1.0700    14.9389 </r>
       <r>    12.2926     0.5752    14.9852 </r>
       <r>    12.3731     0.4864    15.0244 </r>
       <r>    12.4537     0.5877    15.0717 </r>
       <r>    12.5342     0.5041    15.1123 </r>
       <r>    12.6147     0.3838    15.1432 </r>
       <r>    12.6952     0.7626    15.2046 </r>
       <r>    12.7757     0.6548    15.2573 </r>
       <r>    12.8563     0.7756    15.3198 </r>
       <r>    12.9368     0.7491    15.3801 </r>
       <r>    13.0173     1.0851    15.4674 </r>
       <r>    13.0978     0.8896    15.5391 </r>
       <r>    13.1784     0.3717    15.5690 </r>
       <r>    13.2589     0.4564    15.6058 </r>
       <r>    13.3394     0.4367    15.6409 </r>
       <r>    13.4199     0.3482    15.6690 </r>
       <r>    13.5004     0.3462    15.6968 </r>
       <r>    13.5810     0.3587    15.7257 </r>
       <r>    13.6615     0.4488    15.7619 </r>
       <r>    13.7420     0.1942    15.7775 </r>
       <r>    13.8225     0.2162    15.7949 </r>
       <r>    13.9030     0.6107    15.8441 </r>
       <r>    13.9836     0.5371    15.8873 </r>
       <r>    14.0641     0.0479    15.8912 </r>
       <r>    14.1446     0.0286    15.8935 </r>
       <r>    14.2251     0.0358    15.8964 </r>
       <r>    14.3056     0.0714    15.9021 </r>
       <r>    14.3862     0.0874    15.9092 </r>
       <r>    14.4667     0.0870    15.9162 </r>
       <r>    14.5472     0.2401    15.9355 </r>
       <r>    14.6277     0.0863    15.9424 </r>
       <r>    14.7083     0.0819    15.9490 </r>
       <r>    14.7888     0.2741    15.9711 </r>
       <r>    14.8693     0.1688    15.9847 </r>
       <r>    14.9498     0.0286    15.9870 </r>
       <r>    15.0303     0.0004    15.9870 </r>
       <r>    15.1109     0.0000    15.9870 </r>
       <r>    15.1914     0.0007    15.9871 </r>
       <r>    15.2719     0.0317    15.9897 </r>
       <r>    15.3524     0.0542    15.9940 </r>
       <r>    15.4329     0.0468    15.9978 </r>
       <r>    15.5135     0.0251    15.9998 </r>
       <r>    15.5940     0.0024    16.0000 </r>
       <r>    15.6745     0.0000    16.0000 </r>
       <r>    15.7550     0.0000    16.0000 </r>
       <r>    15.8355     0.0000    16.0000 </r>
       <r>    15.9161     0.0000    16.0000 </r>
       <r>    15.9966     0.0000    16.0000 </r>
       <r>    16.0771     0.0000    16.0000 </r>
       <r>    16.1576     0.0000    16.0000 </r>
       <r>    16.2382     0.0000    16.0000 </r>
       <r>    16.3187     0.0000    16.0000 </r>
       <r>    16.3992     0.0000    16.0000 </r>
       <r>    16.4797     0.0000    16.0000 </r>
       <r>    16.5602     0.0000    16.0000 </r>
      </set>
     </set>
    </array>
   </total>
  </dos>
 </calculation>
 <structure name="finalpos" >
  <crystal>
   <varray name="basis" >
    <v>       2.71500000       2.71500000       0.00000000 </v>
    <v>       0.00000000       2.71500000       2.71500000 </v>
    <v>       2.71500000       0.00000000       2.71500000 </v>
   </varray>
   <i name="volume">     40.02575175 </i>
   <varray name="rec_basis" >
    <v>       0.18416206       0.18416206      -0.18416206 </v>
    <v>      -0.18416206       0.18416206       0.18416206 </v>
    <v>       0.18416206      -0.18416206       0.18416206 </v>
   </varray>
  </crystal>
  <varray name="positions" >
   <v>       0.00000000       0.00000000       0.00000000 </v>
   <v>       0.25000000       0.25000000       0.25000000 </v>
  </varray>
 </structure>
</modeling>
