       N       E                     dE             d eps       ncg     rms          rms(c)
DAV:   1     0.421986498863E+01    0.42199E+01   -0.84629E+02   120   0.365E+02
DAV:   2    -0.272401312931E+00   -0.44923E+01   -0.44299E+01   186   0.351E+01
DAV:   3    -0.560801387137E+00   -0.28840E+00   -0.24447E+00   120   0.692E+00
DAV:   4    -0.569041521949E+00   -0.82401E-02   -0.82207E-02   168   0.164E+00
DAV:   5    -0.569134129986E+00   -0.92608E-04   -0.92588E-04   162   0.149E-01    0.339E-01
DAV:   6    -0.560708430112E+00    0.84257E-02   -0.11741E-02   132   0.412E-01    0.184E-01
DAV:   7    -0.557957917159E+00    0.27505E-02   -0.16671E-02   150   0.502E-01    0.578E-02
DAV:   8    -0.558763093034E+00   -0.80518E-03   -0.58772E-04   132   0.109E-01    0.112E-02
DAV:   9    -0.558821779035E+00   -0.58686E-04   -0.19446E-05   150   0.214E-02    0.547E-03
DAV:  10    -0.558872842195E+00   -0.51063E-04   -0.42079E-05   132   0.209E-02    0.191E-03
DAV:  11    -0.558873703752E+00   -0.86156E-06   -0.29940E-06   162   0.690E-03
   1 F= -.55887370E+00 E0= -.53629915E+00  d E =-.558874E+00
       N       E                     dE             d eps       ncg     rms          rms(c)
DAV:   1    -0.895040428217E+00   -0.33617E+00   -0.43582E+00   120   0.931E+00    0.141E+00
DAV:   2    -0.756162109285E+00    0.13888E+00   -0.19915E-01   132   0.184E+00    0.706E-01
DAV:   3    -0.707875552690E+00    0.48287E-01   -0.18589E-01   120   0.161E+00    0.786E-02
DAV:   4    -0.707985884770E+00   -0.11033E-03   -0.11638E-03   126   0.236E-01    0.301E-02
DAV:   5    -0.708219058698E+00   -0.23317E-03   -0.20792E-04   120   0.885E-02    0.117E-02
DAV:   6    -0.708246128979E+00   -0.27070E-04   -0.29905E-05   138   0.226E-02    0.411E-03
DAV:   7    -0.708246357497E+00   -0.22852E-06   -0.22457E-06   138   0.738E-03
   2 F= -.70824636E+00 E0= -.69054446E+00  d E =-.149373E+00
       N       E                     dE             d eps       ncg     rms          rms(c)
DAV:   1    -0.339947833687E+01   -0.26912E+01   -0.50015E+01   120   0.349E+01    0.469E+00
DAV:   2    -0.196960960857E+01    0.14299E+01   -0.16725E+00   120   0.539E+00    0.246E+00
DAV:   3    -0.143481436381E+01    0.53480E+00   -0.19213E+00   120   0.533E+00    0.279E-01
DAV:   4    -0.143281089340E+01    0.20035E-02   -0.17406E-02   120   0.991E-01    0.882E-02
DAV:   5    -0.143261437471E+01    0.19652E-03   -0.80623E-04   120   0.226E-01    0.190E-02
DAV:   6    -0.143267932677E+01   -0.64952E-04   -0.51117E-05   138   0.466E-02    0.104E-02
DAV:   7    -0.143269742472E+01   -0.18098E-04   -0.20827E-05   126   0.203E-02    0.342E-03
DAV:   8    -0.143269753739E+01   -0.11267E-06   -0.52807E-07   150   0.366E-03
   3 F= -.14326975E+01 E0= -.14242768E+01  d E =-.873824E+00
       N       E                     dE             d eps       ncg     rms          rms(c)
DAV:   1    -0.148130136134E+02   -0.13380E+02   -0.36009E+02   120   0.120E+02    0.123E+01
DAV:   2    -0.808487723967E+01    0.67281E+01   -0.34865E+00   120   0.104E+01    0.715E+00
DAV:   3    -0.475846655348E+01    0.33264E+01   -0.68195E+00   120   0.122E+01    0.732E-01
DAV:   4    -0.474314277457E+01    0.15324E-01   -0.38061E-02   120   0.184E+00    0.282E-01
DAV:   5    -0.474034714225E+01    0.27956E-02   -0.14749E-03   126   0.329E-01    0.297E-02
DAV:   6    -0.474035530442E+01   -0.81622E-05   -0.23226E-05   138   0.386E-02    0.111E-02
DAV:   7    -0.474035344094E+01    0.18635E-05   -0.18756E-06   114   0.798E-03    0.778E-04
DAV:   8    -0.474035346595E+01   -0.25017E-07   -0.32598E-08    66   0.161E-03
   4 F= -.47403535E+01 E0= -.47374044E+01  d E =-.418148E+01
