 vasp.6.3.2 27Jun22 (build Dec 02 2024 22:47:12) complex                        
  
 executed on             LinuxIFC date 2024.12.05  13:30:46
 running on    1 total cores
 distrk:  each k-point on    1 cores,    1 groups
 distr:  one band on NCORE=   1 cores,    1 groups


--------------------------------------------------------------------------------------------------------


 INCAR:
   SYSTEM = Silicon
   ENCUT = 520
   PREC = Accurate
   ISMEAR = 0
   SIGMA = 0.1
   IBRION = 2
   NSW = 50
   EDIFF = 1E-6
   ISIF = 3
   LREAL = Auto

 POTCAR:   PAW Si 02Apr1999                       
 POTCAR:   PAW Si 02Apr1999                       
   VRHFIN =Si: s2p2                                                                                 
   LEXCH  = CA                                                                                      
   EATOM  =   103.4338 eV,    7.6022 Ry                                                             
                                                                                                    
   TITEL  = PAW Si 02Apr1999                                                                        
   LULTRA =        F    use ultrasoft PP ?                                                          
   IUNSCR =        1    unscreen: 0-lin 1-nonlin 2-no                                               
   RPACOR =    1.500    partial core radius                                                         
   POMASS =   28.085; ZVAL   =    4.000    mass and valenz                                          
   RCORE  =    1.900    outmost cutoff radius                                                       
   RWIGS  =    2.480; RWIGS  =    1.312    wigner-seitz radius (au A)                               
   ENMAX  =  245.704; ENMIN  =  184.278 eV                                                          
   ICORE  =        2    local potential                                                             
   LCOR   =        T    correct aug charges                                                         
   LPAW   =        T    paw PP                                                                      
   EAUG   =  322.069                                                                                
   DEXC   =    -.006                                                                                
   RMAX   =    2.941    core radius for proj-oper                                                   
   RAUG   =    1.300    factor for augmentation sphere                                              
   RDEP   =    1.993    core radius for depl-charge                                                 
   QCUT   =   -4.250; QGAM   =    8.499    optimization parameters                                  
                                                                                                    
   Description                                                                                      
     l     E      TYP  RCUT    TYP  RCUT                                                            
     0   .000     23  1.900                                                                         
     0   .000     23  1.900                                                                         
     1   .000     23  1.900                                                                         
     1   .000     23  1.900                                                                         
     2   .000      7  1.900                                                                         
  local pseudopotential read in
  partial core-charges read in
  atomic valenz-charges read in
  non local Contribution for L=           0  read in
    real space projection operators read in
  non local Contribution for L=           0  read in
    real space projection operators read in
  non local Contribution for L=           1  read in
    real space projection operators read in
  non local Contribution for L=           1  read in
    real space projection operators read in
    PAW grid and wavefunctions read in
 
   number of l-projection  operators is LMAX  =           4
   number of lm-projection operators is LMMAX =           8
 
 -----------------------------------------------------------------------------
|                                                                             |
|               ----> ADVICE to this user running VASP <----                  |
|                                                                             |
|     You have a (more or less) 'small supercell' and for smaller cells       |
|     it is recommended to use the reciprocal-space projection scheme!        |
|     The real-space optimization is not efficient for small cells and it     |
|     is also less accurate ...                                               |
|     Therefore, set LREAL=.FALSE. in the INCAR file.                         |
|                                                                             |
 -----------------------------------------------------------------------------

 Optimization of the real space projectors (new method)

 maximal supplied QI-value         = 19.84
 optimisation between [QCUT,QGAM] = [ 11.51, 23.22] = [ 37.09,150.92] Ry 
 Optimized for a Real-space Cutoff    1.21 Angstroem

   l    n(q)    QCUT    max X(q) W(low)/X(q) W(high)/X(q)  e(spline) 
   0      8    11.508     8.540    0.18E-04    0.44E-05    0.47E-08
   0      8    11.508   104.916    0.71E-04    0.15E-03    0.51E-07
   1      8    11.508     5.806    0.64E-05    0.23E-04    0.21E-07
   1      8    11.508    72.249    0.16E-03    0.36E-04    0.80E-07
 PAW Si 02Apr1999                       :
 energy of atom  1       EATOM= -103.4338
 kinetic energy error for atom=    0.0005 (will be added to EATOM!!)
 
 
 POSCAR: Si
  positions in direct lattice
  No initial velocities read in
 exchange correlation table for  LEXCH =        2
   RHO(1)=    0.500       N(1)  =     2000
   RHO(2)=  100.500       N(2)  =     4000
 


--------------------------------------------------------------------------------------------------------


 ion  position               nearest neighbor table
   1  0.000  0.000  0.000-
 
  LATTYP: Found a simple cubic cell.
 ALAT       =     5.4300000000
  
  Lattice vectors:
  
 A1 = (   5.4300000000,   0.0000000000,   0.0000000000)
 A2 = (   0.0000000000,   5.4300000000,   0.0000000000)
 A3 = (   0.0000000000,   0.0000000000,   5.4300000000)


Analysis of symmetry for initial positions (statically):
=====================================================================
 Subroutine PRICEL returns:
 Original cell was already a primitive cell.
 

 Routine SETGRP: Setting up the symmetry group for a 
 simple cubic supercell.


 Subroutine GETGRP returns: Found 48 space group operations
 (whereof 48 operations were pure point group operations)
 out of a pool of 48 trial point group operations.


The static configuration has the point symmetry O_h .


Analysis of symmetry for dynamics (positions and initial velocities):
=====================================================================
 Subroutine PRICEL returns:
 Original cell was already a primitive cell.
 

 Routine SETGRP: Setting up the symmetry group for a 
 simple cubic supercell.


 Subroutine GETGRP returns: Found 48 space group operations
 (whereof 48 operations were pure point group operations)
 out of a pool of 48 trial point group operations.


The dynamic configuration has the point symmetry O_h .


 Subroutine INISYM returns: Found 48 space group operations
 (whereof 48 operations are pure point group operations),
 and found     1 'primitive' translations


----------------------------------------------------------------------------------------

                                     Primitive cell                                     

  volume of cell :     160.1030

  direct lattice vectors                    reciprocal lattice vectors
     5.430000000  0.000000000  0.000000000     0.184162063  0.000000000  0.000000000
     0.000000000  5.430000000  0.000000000     0.000000000  0.184162063  0.000000000
     0.000000000  0.000000000  5.430000000     0.000000000  0.000000000  0.184162063

  length of vectors
     5.430000000  5.430000000  5.430000000     0.184162063  0.184162063  0.184162063

  position of ions in fractional coordinates (direct lattice)
     0.000000000  0.000000000  0.000000000

  ion indices of the primitive-cell ions
   primitive index   ion index
                 1           1

----------------------------------------------------------------------------------------

 
 
 KPOINTS: KPOINTS                                 

Automatic generation of k-mesh.
 Grid dimensions read from file:
 generate k-points for:    4    4    4

 Generating k-lattice:

  Cartesian coordinates                     Fractional coordinates (reciprocal lattice)
     0.046040516  0.000000000  0.000000000     0.250000000  0.000000000  0.000000000
     0.000000000  0.046040516  0.000000000     0.000000000  0.250000000  0.000000000
     0.000000000  0.000000000  0.046040516     0.000000000  0.000000000  0.250000000

  Length of vectors
     0.046040516  0.046040516  0.046040516

  Shift w.r.t. Gamma in fractional coordinates (k-lattice)
     0.000000000  0.000000000  0.000000000

 
 Subroutine IBZKPT returns following result:
 ===========================================
 
 Found     10 irreducible k-points:
 
 Following reciprocal coordinates:
            Coordinates               Weight
  0.000000  0.000000  0.000000      1.000000
  0.250000  0.000000  0.000000      6.000000
  0.500000  0.000000  0.000000      3.000000
  0.250000  0.250000  0.000000     12.000000
  0.500000  0.250000  0.000000     12.000000
  0.500000  0.500000  0.000000      3.000000
  0.250000  0.250000  0.250000      8.000000
  0.500000  0.250000  0.250000     12.000000
  0.500000  0.500000  0.250000      6.000000
  0.500000  0.500000  0.500000      1.000000
 
 Following cartesian coordinates:
            Coordinates               Weight
  0.000000  0.000000  0.000000      1.000000
  0.250000  0.000000  0.000000      6.000000
  0.500000  0.000000  0.000000      3.000000
  0.250000  0.250000  0.000000     12.000000
  0.500000  0.250000  0.000000     12.000000
  0.500000  0.500000  0.000000      3.000000
  0.250000  0.250000  0.250000      8.000000
  0.500000  0.250000  0.250000     12.000000
  0.500000  0.500000  0.250000      6.000000
  0.500000  0.500000  0.500000      1.000000
 


--------------------------------------------------------------------------------------------------------




 Dimension of arrays:
   k-points           NKPTS =     10   k-points in BZ     NKDIM =     10   number of bands    NBANDS=      6
   number of dos      NEDOS =    301   number of ions     NIONS =      1
   non local maximal  LDIM  =      4   non local SUM 2l+1 LMDIM =      8
   total plane-waves  NPLWV =  64000
   max r-space proj   IRMAX =   3022   max aug-charges    IRDMAX=  13563
   dimension x,y,z NGX =    40 NGY =   40 NGZ =   40
   dimension x,y,z NGXF=    80 NGYF=   80 NGZF=   80
   support grid    NGXF=    80 NGYF=   80 NGZF=   80
   ions per type =               1
   NGX,Y,Z   is equivalent  to a cutoff of  12.25, 12.25, 12.25 a.u.
   NGXF,Y,Z  is equivalent  to a cutoff of  24.49, 24.49, 24.49 a.u.

 SYSTEM =  Silicon                                 
 POSCAR =  Si                                      

 Startparameter for this run:
   NWRITE =      2    write-flag & timer
   PREC   = accura    normal or accurate (medium, high low for compatibility)
   ISTART =      0    job   : 0-new  1-cont  2-samecut
   ICHARG =      2    charge: 1-file 2-atom 10-const
   ISPIN  =      1    spin polarized calculation?
   LNONCOLLINEAR =      F non collinear calculations
   LSORBIT =      F    spin-orbit coupling
   INIWAV =      1    electr: 0-lowe 1-rand  2-diag
   LASPH  =      F    aspherical Exc in radial PAW
 Electronic Relaxation 1
   ENCUT  =  520.0 eV  38.22 Ry    6.18 a.u.  10.10 10.10 10.10*2*pi/ulx,y,z
   ENINI  =  520.0     initial cutoff
   ENAUG  =  322.1 eV  augmentation charge cutoff
   NELM   =     60;   NELMIN=  2; NELMDL=  0     # of ELM steps 
   EDIFF  = 0.1E-05   stopping-criterion for ELM
   LREAL  =      T    real-space projection
   NLSPLINE    = F    spline interpolate recip. space projectors
   LCOMPAT=      F    compatible to vasp.4.4
   GGA_COMPAT  = T    GGA compatible to vasp.4.4-vasp.4.6
   LMAXPAW     = -100 max onsite density
   LMAXMIX     =    2 max onsite mixed and CHGCAR
   VOSKOWN=      0    Vosko Wilk Nusair interpolation
   ROPT   =   -0.00025
 Ionic relaxation
   EDIFFG = 0.1E-04   stopping-criterion for IOM
   NSW    =     50    number of steps for IOM
   NBLOCK =      1;   KBLOCK =     50    inner block; outer block 
   IBRION =      2    ionic relax: 0-MD 1-quasi-New 2-CG
   NFREE  =      1    steps in history (QN), initial steepest desc. (CG)
   ISIF   =      3    stress and relaxation
   IWAVPR =     11    prediction:  0-non 1-charg 2-wave 3-comb
   ISYM   =      2    0-nonsym 1-usesym 2-fastsym
   LCORR  =      T    Harris-Foulkes like correction to forces

   POTIM  = 0.5000    time-step for ionic-motion
   TEIN   =    0.0    initial temperature
   TEBEG  =    0.0;   TEEND  =   0.0 temperature during run
   SMASS  =  -3.00    Nose mass-parameter (am)
   estimated Nose-frequenzy (Omega)   =  0.10E-29 period in steps = 0.13E+47 mass=  -0.674E-27a.u.
   SCALEE = 1.0000    scale energy and forces
   NPACO  =    256;   APACO  = 10.0  distance and # of slots for P.C.
   PSTRESS=    0.0 pullay stress

  Mass of Ions in am
   POMASS =  28.09
  Ionic Valenz
   ZVAL   =   4.00
  Atomic Wigner-Seitz radii
   RWIGS  =  -1.00
  virtual crystal weights 
   VCA    =   1.00
   NELECT =       4.0000    total number of electrons
   NUPDOWN=      -1.0000    fix difference up-down

 DOS related values:
   EMIN   =  10.00;   EMAX   =-10.00  energy-range for DOS
   EFERMI =   0.00
   ISMEAR =     0;   SIGMA  =   0.10  broadening in eV -4-tet -1-fermi 0-gaus

 Electronic relaxation 2 (details)
   IALGO  =     38    algorithm
   LDIAG  =      T    sub-space diagonalisation (order eigenvalues)
   LSUBROT=      F    optimize rotation matrix (better conditioning)
   TURBO    =      0    0=normal 1=particle mesh
   IRESTART =      0    0=no restart 2=restart with 2 vectors
   NREBOOT  =      0    no. of reboots
   NMIN     =      0    reboot dimension
   EREF     =   0.00    reference energy to select bands
   IMIX   =      4    mixing-type and parameters
     AMIX     =   0.40;   BMIX     =  1.00
     AMIX_MAG =   1.60;   BMIX_MAG =  1.00
     AMIN     =   0.10
     WC   =   100.;   INIMIX=   1;  MIXPRE=   1;  MAXMIX= -45

 Intra band minimization:
   WEIMIN = 0.0010     energy-eigenvalue tresh-hold
   EBREAK =  0.42E-07  absolut break condition
   DEPER  =   0.30     relativ break condition  

   TIME   =   0.40     timestep for ELM

  volume/ion in A,a.u.               =     160.10      1080.43
  Fermi-wavevector in a.u.,A,eV,Ry     =   0.478588  0.904400  3.116364  0.229046
  Thomas-Fermi vector in A             =   1.475145
 
 Write flags
   LWAVE        =      T    write WAVECAR
   LDOWNSAMPLE  =      F    k-point downsampling of WAVECAR
   LCHARG       =      T    write CHGCAR
   LVTOT        =      F    write LOCPOT, total local potential
   LVHAR        =      F    write LOCPOT, Hartree potential only
   LELF         =      F    write electronic localiz. function (ELF)
   LORBIT       =      0    0 simple, 1 ext, 2 COOP (PROOUT), +10 PAW based schemes


 Dipole corrections
   LMONO  =      F    monopole corrections only (constant potential shift)
   LDIPOL =      F    correct potential (dipole corrections)
   IDIPOL =      0    1-x, 2-y, 3-z, 4-all directions 
   EPSILON=  1.0000000 bulk dielectric constant

 Exchange correlation treatment:
   GGA     =    --    GGA type
   LEXCH   =     2    internal setting for exchange type
   LIBXC   =     F    Libxc                    
   VOSKOWN =     0    Vosko Wilk Nusair interpolation
   LHFCALC =     F    Hartree Fock is set to
   LHFONE  =     F    Hartree Fock one center treatment
   AEXX    =    0.0000 exact exchange contribution

 Linear response parameters
   LEPSILON=     F    determine dielectric tensor
   LRPA    =     F    only Hartree local field effects (RPA)
   LNABLA  =     F    use nabla operator in PAW spheres
   LVEL    =     F    velocity operator in full k-point grid
   CSHIFT  =0.1000    complex shift for real part using Kramers Kronig
   OMEGAMAX=  -1.0    maximum frequency
   DEG_THRESHOLD= 0.2000000E-02 threshold for treating states as degnerate
   RTIME   =   -0.100 relaxation time in fs
  (WPLASMAI=    0.000 imaginary part of plasma frequency in eV, 0.658/RTIME)
   DFIELD  = 0.0000000 0.0000000 0.0000000 field for delta impulse in time
 
  Optional k-point grid parameters
   LKPOINTS_OPT  =     F    use optional k-point grid
   KPOINTS_OPT_MODE=     1    mode for optional k-point grid
 
 Orbital magnetization related:
   ORBITALMAG=     F  switch on orbital magnetization
   LCHIMAG   =     F  perturbation theory with respect to B field
   DQ        =  0.001000  dq finite difference perturbation B field
   LLRAUG    =     F  two centre corrections for induced B field



--------------------------------------------------------------------------------------------------------


 conjugate gradient relaxation of ions
 charge density and potential will be updated during run
 non-spin polarized calculation
 Variant of blocked Davidson
 Davidson routine will perform the subspace rotation
 perform sub-space diagonalisation
    after iterative eigenvector-optimisation
 modified Broyden-mixing scheme, WC =      100.0
 initial mixing is a Kerker type mixing with AMIX =  0.4000 and BMIX =      1.0000
 Hartree-type preconditioning will be used
 using additional bands            4
 real space projection scheme for non local part
 use partial core corrections
 calculate Harris-corrections to forces 
   (improved forces if not selfconsistent)
 use of overlap-Matrix (Vanderbilt PP)
 Gauss-broadening in eV      SIGMA  =   0.10


--------------------------------------------------------------------------------------------------------


  energy-cutoff  :      520.00
  volume of cell :      160.10
      direct lattice vectors                 reciprocal lattice vectors
     5.430000000  0.000000000  0.000000000     0.184162063  0.000000000  0.000000000
     0.000000000  5.430000000  0.000000000     0.000000000  0.184162063  0.000000000
     0.000000000  0.000000000  5.430000000     0.000000000  0.000000000  0.184162063

  length of vectors
     5.430000000  5.430000000  5.430000000     0.184162063  0.184162063  0.184162063


 
 k-points in units of 2pi/SCALE and weight: KPOINTS                                 
   0.00000000  0.00000000  0.00000000       0.016
   0.25000000  0.00000000  0.00000000       0.094
   0.50000000  0.00000000  0.00000000       0.047
   0.25000000  0.25000000  0.00000000       0.188
   0.50000000  0.25000000  0.00000000       0.188
   0.50000000  0.50000000  0.00000000       0.047
   0.25000000  0.25000000  0.25000000       0.125
   0.50000000  0.25000000  0.25000000       0.188
   0.50000000  0.50000000  0.25000000       0.094
   0.50000000  0.50000000  0.50000000       0.016
 
 k-points in reciprocal lattice and weights: KPOINTS                                 
   0.00000000  0.00000000  0.00000000       0.016
   0.25000000  0.00000000  0.00000000       0.094
   0.50000000  0.00000000  0.00000000       0.047
   0.25000000  0.25000000  0.00000000       0.188
   0.50000000  0.25000000  0.00000000       0.188
   0.50000000  0.50000000  0.00000000       0.047
   0.25000000  0.25000000  0.25000000       0.125
   0.50000000  0.25000000  0.25000000       0.188
   0.50000000  0.50000000  0.25000000       0.094
   0.50000000  0.50000000  0.50000000       0.016
 
 position of ions in fractional coordinates (direct lattice) 
   0.00000000  0.00000000  0.00000000
 
 position of ions in cartesian coordinates  (Angst):
   0.00000000  0.00000000  0.00000000
 


--------------------------------------------------------------------------------------------------------


 k-point   1 :   0.0000 0.0000 0.0000  plane waves:    4337
 k-point   2 :   0.2500 0.0000 0.0000  plane waves:    4300
 k-point   3 :   0.5000 0.0000 0.0000  plane waves:    4292
 k-point   4 :   0.2500 0.2500 0.0000  plane waves:    4278
 k-point   5 :   0.5000 0.2500 0.0000  plane waves:    4326
 k-point   6 :   0.5000 0.5000 0.0000  plane waves:    4324
 k-point   7 :   0.2500 0.2500 0.2500  plane waves:    4323
 k-point   8 :   0.5000 0.2500 0.2500  plane waves:    4324
 k-point   9 :   0.5000 0.5000 0.2500  plane waves:    4320
 k-point  10 :   0.5000 0.5000 0.5000  plane waves:    4272

 maximum and minimum number of plane-waves per node :      4337     4272

 maximum number of plane-waves:      4337
 maximum index in each direction: 
   IXMAX=   10   IYMAX=   10   IZMAX=   10
   IXMIN=  -10   IYMIN=  -10   IZMIN=  -10


 serial   3D FFT for wavefunctions
 parallel 3D FFT for charge:
    minimum data exchange during FFTs selected (reduces bandwidth)


 total amount of memory used by VASP MPI-rank0    79862. kBytes
=======================================================================

   base      :      30000. kBytes
   nonlr-proj:        253. kBytes
   fftplans  :      17864. kBytes
   grid      :      27571. kBytes
   one-center:          3. kBytes
   wavefun   :       4171. kBytes
 
     INWAV:  cpu time      0.0000: real time      0.0006
 Broyden mixing: mesh for mixing (old mesh)
   NGX = 21   NGY = 21   NGZ = 21
  (NGX  = 80   NGY  = 80   NGZ  = 80)
  gives a total of   9261 points

 initial charge density was supplied:
 charge density of overlapping atoms calculated
 number of electron       4.0000000 magnetization 
 keeping initial charge density in first step


--------------------------------------------------------------------------------------------------------


 Maximum index for non-local projection operator         2897
 Maximum index for augmentation-charges        13037 (set IRDMAX)


--------------------------------------------------------------------------------------------------------


 First call to EWALD:  gamma=   0.326
 Maximum number of real-space cells 3x 3x 3
 Maximum number of reciprocal cells 3x 3x 3

    FEWALD:  cpu time      0.0005: real time      0.0030


--------------------------------------- Iteration      1(   1)  ---------------------------------------


    POTLOK:  cpu time      0.0415: real time      0.0468
    SETDIJ:  cpu time      0.0010: real time      0.0010
     EDDAV:  cpu time      0.1657: real time      0.1677
       DOS:  cpu time      0.0002: real time      0.0002
    --------------------------------------------
      LOOP:  cpu time      0.2084: real time      0.2157

 eigenvalue-minimisations  :   120
 total energy-change (2. order) : 0.4219865E+01  (-0.8462949E+02)
 number of electron       4.0000000 magnetization 
 augmentation part        4.0000000 magnetization 

 Free energy of the ion-electron system (eV)
  ---------------------------------------------------
  alpha Z        PSCENC =         0.14806386
  Ewald energy   TEWEN  =       -60.19370904
  -Hartree energ DENC   =       -25.94168268
  -exchange      EXHF   =         0.00000000
  -V(xc)+E(xc)   XCENC  =       -10.87698277
  PAW double counting   =        33.55897582      -16.14130609
  entropy T*S    EENTRO =        -0.00736095
  eigenvalues    EBANDS =       -19.75939452
  atomic energy  EATOM  =       103.43326135
  Solvation  Ediel_sol  =         0.00000000
  ---------------------------------------------------
  free energy    TOTEN  =         4.21986499 eV

  energy without entropy =        4.22722594  energy(sigma->0) =        4.22354546


--------------------------------------------------------------------------------------------------------




--------------------------------------- Iteration      1(   2)  ---------------------------------------


     EDDAV:  cpu time      0.2252: real time      0.2280
       DOS:  cpu time      0.0002: real time      0.0002
    --------------------------------------------
      LOOP:  cpu time      0.2254: real time      0.2282

 eigenvalue-minimisations  :   186
 total energy-change (2. order) :-0.4492266E+01  (-0.4429916E+01)
 number of electron       4.0000000 magnetization 
 augmentation part        4.0000000 magnetization 

 Free energy of the ion-electron system (eV)
  ---------------------------------------------------
  alpha Z        PSCENC =         0.14806386
  Ewald energy   TEWEN  =       -60.19370904
  -Hartree energ DENC   =       -25.94168268
  -exchange      EXHF   =         0.00000000
  -V(xc)+E(xc)   XCENC  =       -10.87698277
  PAW double counting   =        33.55897582      -16.14130609
  entropy T*S    EENTRO =        -0.03834709
  eigenvalues    EBANDS =       -24.22067467
  atomic energy  EATOM  =       103.43326135
  Solvation  Ediel_sol  =         0.00000000
  ---------------------------------------------------
  free energy    TOTEN  =        -0.27240131 eV

  energy without entropy =       -0.23405422  energy(sigma->0) =       -0.25322777


--------------------------------------------------------------------------------------------------------




--------------------------------------- Iteration      1(   3)  ---------------------------------------


     EDDAV:  cpu time      0.1597: real time      0.1626
       DOS:  cpu time      0.0002: real time      0.0002
    --------------------------------------------
      LOOP:  cpu time      0.1599: real time      0.1627

 eigenvalue-minimisations  :   120
 total energy-change (2. order) :-0.2884001E+00  (-0.2444739E+00)
 number of electron       4.0000000 magnetization 
 augmentation part        4.0000000 magnetization 

 Free energy of the ion-electron system (eV)
  ---------------------------------------------------
  alpha Z        PSCENC =         0.14806386
  Ewald energy   TEWEN  =       -60.19370904
  -Hartree energ DENC   =       -25.94168268
  -exchange      EXHF   =         0.00000000
  -V(xc)+E(xc)   XCENC  =       -10.87698277
  PAW double counting   =        33.55897582      -16.14130609
  entropy T*S    EENTRO =        -0.04306794
  eigenvalues    EBANDS =       -24.50435390
  atomic energy  EATOM  =       103.43326135
  Solvation  Ediel_sol  =         0.00000000
  ---------------------------------------------------
  free energy    TOTEN  =        -0.56080139 eV

  energy without entropy =       -0.51773344  energy(sigma->0) =       -0.53926742


--------------------------------------------------------------------------------------------------------




--------------------------------------- Iteration      1(   4)  ---------------------------------------


     EDDAV:  cpu time      0.2086: real time      0.2114
       DOS:  cpu time      0.0002: real time      0.0001
    --------------------------------------------
      LOOP:  cpu time      0.2088: real time      0.2115

 eigenvalue-minimisations  :   168
 total energy-change (2. order) :-0.8240135E-02  (-0.8220727E-02)
 number of electron       4.0000000 magnetization 
 augmentation part        4.0000000 magnetization 

 Free energy of the ion-electron system (eV)
  ---------------------------------------------------
  alpha Z        PSCENC =         0.14806386
  Ewald energy   TEWEN  =       -60.19370904
  -Hartree energ DENC   =       -25.94168268
  -exchange      EXHF   =         0.00000000
  -V(xc)+E(xc)   XCENC  =       -10.87698277
  PAW double counting   =        33.55897582      -16.14130609
  entropy T*S    EENTRO =        -0.04341894
  eigenvalues    EBANDS =       -24.51224304
  atomic energy  EATOM  =       103.43326135
  Solvation  Ediel_sol  =         0.00000000
  ---------------------------------------------------
  free energy    TOTEN  =        -0.56904152 eV

  energy without entropy =       -0.52562259  energy(sigma->0) =       -0.54733205


--------------------------------------------------------------------------------------------------------




--------------------------------------- Iteration      1(   5)  ---------------------------------------


     EDDAV:  cpu time      0.2017: real time      0.2045
       DOS:  cpu time      0.0002: real time      0.0002
    CHARGE:  cpu time      0.0243: real time      0.0243
    MIXING:  cpu time      0.0064: real time      0.0064
    --------------------------------------------
      LOOP:  cpu time      0.2326: real time      0.2355

 eigenvalue-minimisations  :   162
 total energy-change (2. order) :-0.9260804E-04  (-0.9258794E-04)
 number of electron       4.0000001 magnetization 
 augmentation part       -0.2849677 magnetization 

 Broyden mixing:
  rms(total) = 0.33856E-01    rms(broyden)= 0.33853E-01
  rms(prec ) = 0.11132E+00
  weight for this iteration     100.00

 Free energy of the ion-electron system (eV)
  ---------------------------------------------------
  alpha Z        PSCENC =         0.14806386
  Ewald energy   TEWEN  =       -60.19370904
  -Hartree energ DENC   =       -25.94168268
  -exchange      EXHF   =         0.00000000
  -V(xc)+E(xc)   XCENC  =       -10.87698277
  PAW double counting   =        33.55897582      -16.14130609
  entropy T*S    EENTRO =        -0.04341611
  eigenvalues    EBANDS =       -24.51233848
  atomic energy  EATOM  =       103.43326135
  Solvation  Ediel_sol  =         0.00000000
  ---------------------------------------------------
  free energy    TOTEN  =        -0.56913413 eV

  energy without entropy =       -0.52571802  energy(sigma->0) =       -0.54742608


--------------------------------------------------------------------------------------------------------




--------------------------------------- Iteration      1(   6)  ---------------------------------------


    POTLOK:  cpu time      0.0325: real time      0.0325
    SETDIJ:  cpu time      0.0008: real time      0.0052
     EDDAV:  cpu time      0.1701: real time      0.1702
       DOS:  cpu time      0.0002: real time      0.0002
    CHARGE:  cpu time      0.0225: real time      0.0225
    MIXING:  cpu time      0.0047: real time      0.0047
    --------------------------------------------
      LOOP:  cpu time      0.2307: real time      0.2351

 eigenvalue-minimisations  :   132
 total energy-change (2. order) : 0.8425700E-02  (-0.1174132E-02)
 number of electron       4.0000001 magnetization 
 augmentation part       -0.2875185 magnetization 

 Broyden mixing:
  rms(total) = 0.18444E-01    rms(broyden)= 0.18444E-01
  rms(prec ) = 0.64157E-01
  weight for this iteration     100.00

 eigenvalues of (default mixing * dielectric matrix)
  average eigenvalue GAMMA=   1.9621
  1.9621

 Free energy of the ion-electron system (eV)
  ---------------------------------------------------
  alpha Z        PSCENC =         0.14806386
  Ewald energy   TEWEN  =       -60.19370904
  -Hartree energ DENC   =       -25.42479626
  -exchange      EXHF   =         0.00000000
  -V(xc)+E(xc)   XCENC  =       -10.93203730
  PAW double counting   =        33.07711752      -15.64429106
  entropy T*S    EENTRO =        -0.04435685
  eigenvalues    EBANDS =       -24.97996066
  atomic energy  EATOM  =       103.43326135
  Solvation  Ediel_sol  =         0.00000000
  ---------------------------------------------------
  free energy    TOTEN  =        -0.56070843 eV

  energy without entropy =       -0.51635158  energy(sigma->0) =       -0.53853001


--------------------------------------------------------------------------------------------------------




--------------------------------------- Iteration      1(   7)  ---------------------------------------


    POTLOK:  cpu time      0.0317: real time      0.0317
    SETDIJ:  cpu time      0.0008: real time      0.0008
     EDDAV:  cpu time      0.1874: real time      0.1997
       DOS:  cpu time      0.0002: real time      0.0002
    CHARGE:  cpu time      0.0229: real time      0.0229
    MIXING:  cpu time      0.0048: real time      0.0048
    --------------------------------------------
      LOOP:  cpu time      0.2479: real time      0.2603

 eigenvalue-minimisations  :   150
 total energy-change (2. order) : 0.2750513E-02  (-0.1667131E-02)
 number of electron       4.0000001 magnetization 
 augmentation part       -0.2907049 magnetization 

 Broyden mixing:
  rms(total) = 0.57800E-02    rms(broyden)= 0.57800E-02
  rms(prec ) = 0.14555E-01
  weight for this iteration     100.00

 eigenvalues of (default mixing * dielectric matrix)
  average eigenvalue GAMMA=   2.6789
  2.0265  3.3314

 Free energy of the ion-electron system (eV)
  ---------------------------------------------------
  alpha Z        PSCENC =         0.14806386
  Ewald energy   TEWEN  =       -60.19370904
  -Hartree energ DENC   =       -24.76746629
  -exchange      EXHF   =         0.00000000
  -V(xc)+E(xc)   XCENC  =       -11.00481463
  PAW double counting   =        32.68377431      -15.23841641
  entropy T*S    EENTRO =        -0.04540584
  eigenvalues    EBANDS =       -25.57324523
  atomic energy  EATOM  =       103.43326135
  Solvation  Ediel_sol  =         0.00000000
  ---------------------------------------------------
  free energy    TOTEN  =        -0.55795792 eV

  energy without entropy =       -0.51255207  energy(sigma->0) =       -0.53525500


--------------------------------------------------------------------------------------------------------




--------------------------------------- Iteration      1(   8)  ---------------------------------------


    POTLOK:  cpu time      0.0319: real time      0.0567
    SETDIJ:  cpu time      0.0009: real time      0.0009
     EDDAV:  cpu time      0.1691: real time      0.1788
       DOS:  cpu time      0.0002: real time      0.0001
    CHARGE:  cpu time      0.0232: real time      0.0232
    MIXING:  cpu time      0.0049: real time      0.0049
    --------------------------------------------
      LOOP:  cpu time      0.2301: real time      0.2646

 eigenvalue-minimisations  :   132
 total energy-change (2. order) :-0.8051759E-03  (-0.5877247E-04)
 number of electron       4.0000001 magnetization 
 augmentation part       -0.2906984 magnetization 

 Broyden mixing:
  rms(total) = 0.11167E-02    rms(broyden)= 0.11167E-02
  rms(prec ) = 0.28662E-02
  weight for this iteration     100.00

 eigenvalues of (default mixing * dielectric matrix)
  average eigenvalue GAMMA=   2.2001
  3.2063  1.4655  1.9285

 Free energy of the ion-electron system (eV)
  ---------------------------------------------------
  alpha Z        PSCENC =         0.14806386
  Ewald energy   TEWEN  =       -60.19370904
  -Hartree energ DENC   =       -24.65081873
  -exchange      EXHF   =         0.00000000
  -V(xc)+E(xc)   XCENC  =       -11.02457611
  PAW double counting   =        33.02979314      -15.59544262
  entropy T*S    EENTRO =        -0.04516370
  eigenvalues    EBANDS =       -25.66017125
  atomic energy  EATOM  =       103.43326135
  Solvation  Ediel_sol  =         0.00000000
  ---------------------------------------------------
  free energy    TOTEN  =        -0.55876309 eV

  energy without entropy =       -0.51359939  energy(sigma->0) =       -0.53618124


--------------------------------------------------------------------------------------------------------




--------------------------------------- Iteration      1(   9)  ---------------------------------------


    POTLOK:  cpu time      0.0318: real time      0.0344
    SETDIJ:  cpu time      0.0008: real time      0.0008
     EDDAV:  cpu time      0.1875: real time      0.1897
       DOS:  cpu time      0.0002: real time      0.0002
    CHARGE:  cpu time      0.0224: real time      0.0224
    MIXING:  cpu time      0.0049: real time      0.0049
    --------------------------------------------
      LOOP:  cpu time      0.2476: real time      0.2524

 eigenvalue-minimisations  :   150
 total energy-change (2. order) :-0.5868600E-04  (-0.1944581E-05)
 number of electron       4.0000001 magnetization 
 augmentation part       -0.2907654 magnetization 

 Broyden mixing:
  rms(total) = 0.54651E-03    rms(broyden)= 0.54651E-03
  rms(prec ) = 0.18063E-02
  weight for this iteration     100.00

 eigenvalues of (default mixing * dielectric matrix)
  average eigenvalue GAMMA=   2.4847
  3.9976  0.9539  2.9912  1.9961

 Free energy of the ion-electron system (eV)
  ---------------------------------------------------
  alpha Z        PSCENC =         0.14806386
  Ewald energy   TEWEN  =       -60.19370904
  -Hartree energ DENC   =       -24.64138988
  -exchange      EXHF   =         0.00000000
  -V(xc)+E(xc)   XCENC  =       -11.02505684
  PAW double counting   =        32.97449814      -15.53843045
  entropy T*S    EENTRO =        -0.04518243
  eigenvalues    EBANDS =       -25.67087649
  atomic energy  EATOM  =       103.43326135
  Solvation  Ediel_sol  =         0.00000000
  ---------------------------------------------------
  free energy    TOTEN  =        -0.55882178 eV

  energy without entropy =       -0.51363935  energy(sigma->0) =       -0.53623056


--------------------------------------------------------------------------------------------------------




--------------------------------------- Iteration      1(  10)  ---------------------------------------


    POTLOK:  cpu time      0.0312: real time      0.0312
    SETDIJ:  cpu time      0.0008: real time      0.0008
     EDDAV:  cpu time      0.1693: real time      0.1718
       DOS:  cpu time      0.0002: real time      0.0002
    CHARGE:  cpu time      0.0229: real time      0.0229
    MIXING:  cpu time      0.0049: real time      0.0049
    --------------------------------------------
      LOOP:  cpu time      0.2292: real time      0.2318

 eigenvalue-minimisations  :   132
 total energy-change (2. order) :-0.5106316E-04  (-0.4207944E-05)
 number of electron       4.0000001 magnetization 
 augmentation part       -0.2907904 magnetization 

 Broyden mixing:
  rms(total) = 0.19132E-03    rms(broyden)= 0.19132E-03
  rms(prec ) = 0.36971E-03
  weight for this iteration     100.00

 eigenvalues of (default mixing * dielectric matrix)
  average eigenvalue GAMMA=   2.5580
  4.3417  0.9875  3.1857  2.1375  2.1375

 Free energy of the ion-electron system (eV)
  ---------------------------------------------------
  alpha Z        PSCENC =         0.14806386
  Ewald energy   TEWEN  =       -60.19370904
  -Hartree energ DENC   =       -24.63067207
  -exchange      EXHF   =         0.00000000
  -V(xc)+E(xc)   XCENC  =       -11.02608340
  PAW double counting   =        32.94323109      -15.50623933
  entropy T*S    EENTRO =        -0.04516411
  eigenvalues    EBANDS =       -25.68156120
  atomic energy  EATOM  =       103.43326135
  Solvation  Ediel_sol  =         0.00000000
  ---------------------------------------------------
  free energy    TOTEN  =        -0.55887284 eV

  energy without entropy =       -0.51370874  energy(sigma->0) =       -0.53629079


--------------------------------------------------------------------------------------------------------




--------------------------------------- Iteration      1(  11)  ---------------------------------------


    POTLOK:  cpu time      0.0318: real time      0.0318
    SETDIJ:  cpu time      0.0008: real time      0.0008
     EDDAV:  cpu time      0.2011: real time      0.2037
       DOS:  cpu time      0.0002: real time      0.0002
    --------------------------------------------
      LOOP:  cpu time      0.2339: real time      0.2365

 eigenvalue-minimisations  :   162
 total energy-change (2. order) :-0.8615570E-06  (-0.2993951E-06)
 number of electron       4.0000001 magnetization 
 augmentation part       -0.2907904 magnetization 

 Free energy of the ion-electron system (eV)
  ---------------------------------------------------
  alpha Z        PSCENC =         0.14806386
  Ewald energy   TEWEN  =       -60.19370904
  -Hartree energ DENC   =       -24.63615369
  -exchange      EXHF   =         0.00000000
  -V(xc)+E(xc)   XCENC  =       -11.02559625
  PAW double counting   =        32.96487145      -15.52853907
  entropy T*S    EENTRO =        -0.04514912
  eigenvalues    EBANDS =       -25.67592319
  atomic energy  EATOM  =       103.43326135
  Solvation  Ediel_sol  =         0.00000000
  ---------------------------------------------------
  free energy    TOTEN  =        -0.55887370 eV

  energy without entropy =       -0.51372459  energy(sigma->0) =       -0.53629915


--------------------------------------------------------------------------------------------------------




 average (electrostatic) potential at core
  the test charge radii are     0.9892
  (the norm of the test charge is              1.0000)
       1 -95.4666
 
 
 
 E-fermi :  -3.0216     XC(G=0):  -3.7952     alpha+bet : -1.5116

 Fermi energy:        -3.0215829447

 k-point     1 :       0.0000    0.0000    0.0000
  band No.  band energies     occupation 
      1      -9.7587      2.00000
      2      -2.6636      0.00000
      3      -2.6636      0.00000
      4      -2.6636      0.00000
      5      -0.0631      0.00000
      6       2.3407      0.00000

 k-point     2 :       0.2500    0.0000    0.0000
  band No.  band energies     occupation 
      1      -9.7327      2.00000
      2      -3.0460      1.27034
      3      -2.6299      0.00000
      4      -2.6299      0.00000
      5       0.4582      0.00000
      6       2.5122      0.00000

 k-point     3 :       0.5000    0.0000    0.0000
  band No.  band energies     occupation 
      1      -9.7060      2.00000
      2      -3.3465      2.00000
      3      -2.5951      0.00000
      4      -2.5951      0.00000
      5       1.1812      0.00000
      6       1.9217      0.00000

 k-point     4 :       0.2500    0.2500    0.0000
  band No.  band energies     occupation 
      1      -9.7075      2.00000
      2      -3.0201      0.98376
      3      -2.9560      0.35384
      4      -2.5980      0.00000
      5       0.9208      0.00000
      6       2.3855      0.00000

 k-point     5 :       0.5000    0.2500    0.0000
  band No.  band energies     occupation 
      1      -9.6817      2.00000
      2      -3.2772      1.99970
      3      -2.9279      0.18516
      4      -2.5650      0.00000
      5       1.5766      0.00000
      6       1.7547      0.00000

 k-point     6 :       0.5000    0.5000    0.0000
  band No.  band energies     occupation 
      1      -9.6569      2.00000
      2      -3.2022      1.98937
      3      -3.2022      1.98937
      4      -2.5341      0.00000
      5       1.2135      0.00000
      6       2.4180      0.00000

 k-point     7 :       0.2500    0.2500    0.2500
  band No.  band energies     occupation 
      1      -9.6831      2.00000
      2      -2.9892      0.64681
      3      -2.9086      0.10999
      4      -2.9086      0.10999
      5       1.2758      0.00000
      6       2.7794      0.00000

 k-point     8 :       0.5000    0.2500    0.2500
  band No.  band energies     occupation 
      1      -9.6581      2.00000
      2      -3.2134      1.99334
      3      -2.9026      0.09254
      4      -2.8588      0.02129
      5       1.6293      0.00000
      6       2.2582      0.00000

 k-point     9 :       0.5000    0.5000    0.2500
  band No.  band energies     occupation 
      1      -9.6340      2.00000
      2      -3.1451      1.91934
      3      -3.1451      1.91934
      4      -2.8317      0.00725
      5       1.4788      0.00000
      6       2.4292      0.00000

 k-point    10 :       0.5000    0.5000    0.5000
  band No.  band energies     occupation 
      1      -9.6106      2.00000
      2      -3.0844      1.62549
      3      -3.0844      1.62549
      4      -3.0844      1.62549
      5       1.9369      0.00000
      6       1.9369      0.00000


--------------------------------------------------------------------------------------------------------


 soft charge-density along one line, spin component           1
         0         1         2         3         4         5         6         7         8         9
 total charge-density along one line
 
 pseudopotential strength for first ion, spin component:           1
 20.709   0.008  -0.000  -0.000  -0.000   0.000   0.000   0.000
  0.008   0.006   0.000   0.000   0.000  -0.000  -0.000  -0.000
 -0.000   0.000   4.532   0.000   0.000   0.002  -0.000  -0.000
 -0.000   0.000   0.000   4.532   0.000  -0.000   0.002  -0.000
 -0.000   0.000   0.000   0.000   4.532  -0.000  -0.000   0.002
  0.000  -0.000   0.002  -0.000  -0.000   0.004   0.000   0.000
  0.000  -0.000  -0.000   0.002  -0.000   0.000   0.004   0.000
  0.000  -0.000  -0.000  -0.000   0.002   0.000   0.000   0.004
 total augmentation occupancy for first ion, spin component:           1
  2.034   0.112   0.000   0.000   0.000   0.000   0.000   0.000
  0.112   0.011   0.000   0.000   0.000   0.000   0.000   0.000
  0.000   0.000   0.621   0.000  -0.000   0.004  -0.000  -0.000
  0.000   0.000   0.000   0.621  -0.000  -0.000   0.004   0.000
  0.000   0.000  -0.000   0.000   0.621  -0.000   0.000   0.004
  0.000   0.000   0.004  -0.000  -0.000   0.000  -0.000  -0.000
  0.000   0.000  -0.000   0.004   0.000  -0.000   0.000  -0.000
  0.000   0.000  -0.000   0.000   0.004  -0.000  -0.000   0.000


------------------------ aborting loop because EDIFF is reached ----------------------------------------


    CHARGE:  cpu time      0.0229: real time      0.0229
    FORLOC:  cpu time      0.0053: real time      0.0053
    FORNL :  cpu time      0.0561: real time      0.0561
    STRESS:  cpu time      0.1735: real time      0.1735
    FORCOR:  cpu time      0.0363: real time      0.0363
    FORHAR:  cpu time      0.0312: real time      0.0313
    MIXING:  cpu time      0.0050: real time      0.0050
    OFIELD:  cpu time      0.0000: real time      0.0000

  FORCE on cell =-STRESS in cart. coord.  units (eV):
  Direction    XX          YY          ZZ          XY          YZ          ZX
  --------------------------------------------------------------------------------------
  Alpha Z     0.14806     0.14806     0.14806
  Ewald     -20.06457   -20.06457   -20.06457    -0.00000     0.00000     0.00000
  Hartree     8.20999     8.20999     8.20999    -0.00000    -0.00000    -0.00000
  E(xc)     -10.67360   -10.67360   -10.67360     0.00000    -0.00000    -0.00000
  Local     -35.53669   -35.53669   -35.53669     0.00000     0.00000     0.00000
  n-local    45.63517    40.61844    38.11722     0.47101     0.17360     0.13212
  augment    -7.54916    -7.54916    -7.54916     0.00000     0.00000     0.00000
  Kinetic    28.87915    22.09784    18.18302     0.65007     0.26161     0.18620
  Fock        0.00000     0.00000     0.00000     0.00000     0.00000     0.00000
  -------------------------------------------------------------------------------------
  Total      -0.95569    -0.95569    -0.95569     0.00000     0.00000    -0.00000
  in kB      -9.56374    -9.56374    -9.56374     0.00000     0.00000    -0.00000
  external pressure =       -9.56 kB  Pullay stress =        0.00 kB


 VOLUME and BASIS-vectors are now :
 -----------------------------------------------------------------------------
  energy-cutoff  :      520.00
  volume of cell :      160.10
      direct lattice vectors                 reciprocal lattice vectors
     5.430000000  0.000000000  0.000000000     0.184162063  0.000000000  0.000000000
     0.000000000  5.430000000  0.000000000     0.000000000  0.184162063  0.000000000
     0.000000000  0.000000000  5.430000000     0.000000000  0.000000000  0.184162063

  length of vectors
     5.430000000  5.430000000  5.430000000     0.184162063  0.184162063  0.184162063


 FORCES acting on ions
    electron-ion (+dipol)            ewald-force                    non-local-force                 convergence-correction
 -----------------------------------------------------------------------------------------------
   0.108E-14 0.847E-15 -.932E-15   0.248E-16 0.332E-16 -.131E-16   -.209E-22 -.203E-22 -.202E-22   -.668E-17 0.178E-14 0.580E-15
 -----------------------------------------------------------------------------------------------
   0.108E-14 0.847E-15 -.932E-15   0.248E-16 0.332E-16 -.131E-16   -.209E-22 -.203E-22 -.202E-22   -.668E-17 0.178E-14 0.580E-15
 
 
 POSITION                                       TOTAL-FORCE (eV/Angst)
 -----------------------------------------------------------------------------------
      0.00000      0.00000      0.00000         0.000000      0.000000      0.000000
 -----------------------------------------------------------------------------------
    total drift:                                0.000000      0.000000     -0.000000


--------------------------------------------------------------------------------------------------------



  FREE ENERGIE OF THE ION-ELECTRON SYSTEM (eV)
  ---------------------------------------------------
  free  energy   TOTEN  =        -0.55887370 eV

  energy  without entropy=       -0.51372459  energy(sigma->0) =       -0.53629915
 


--------------------------------------------------------------------------------------------------------


    POTLOK:  cpu time      0.0318: real time      0.0454


--------------------------------------------------------------------------------------------------------




--------------------------------------------------------------------------------------------------------


    WAVPRE:  cpu time      0.3635: real time      4.7973
    FEWALD:  cpu time      0.0001: real time      0.0001
    GENKIN:  cpu time      0.0063: real time      0.0063
    ORTHCH:  cpu time      0.0190: real time      0.0190
     LOOP+:  cpu time      3.2084: real time      7.7439


--------------------------------------- Iteration      2(   1)  ---------------------------------------


    POTLOK:  cpu time      0.0320: real time      0.0435
    SETDIJ:  cpu time      0.0008: real time      0.0008
     EDDAV:  cpu time      0.1591: real time      0.1611
       DOS:  cpu time      0.0002: real time      0.0002
    CHARGE:  cpu time      0.0205: real time      0.0206
    MIXING:  cpu time      0.0046: real time      0.0046
    --------------------------------------------
      LOOP:  cpu time      0.2172: real time      0.2307

 eigenvalue-minimisations  :   120
 total energy-change (2. order) :-0.3361676E+00  (-0.4358214E+00)
 number of electron       3.9999999 magnetization 
 augmentation part       -0.2708057 magnetization 

 Broyden mixing:
  rms(total) = 0.14149E+00    rms(broyden)= 0.14149E+00
  rms(prec ) = 0.38933E+00
  weight for this iteration     100.00

 Free energy of the ion-electron system (eV)
  ---------------------------------------------------
  alpha Z        PSCENC =         0.17058756
  Ewald energy   TEWEN  =       -63.10307580
  -Hartree energ DENC   =       -25.82289552
  -exchange      EXHF   =         0.00000000
  -V(xc)+E(xc)   XCENC  =       -10.82963595
  PAW double counting   =        32.95993488      -15.52344486
  entropy T*S    EENTRO =        -0.02918626
  eigenvalues    EBANDS =       -22.15058583
  atomic energy  EATOM  =       103.43326135
  Solvation  Ediel_sol  =         0.00000000
  ---------------------------------------------------
  free energy    TOTEN  =        -0.89504043 eV

  energy without entropy =       -0.86585417  energy(sigma->0) =       -0.88044730


--------------------------------------------------------------------------------------------------------




--------------------------------------- Iteration      2(   2)  ---------------------------------------


    POTLOK:  cpu time      0.0312: real time      0.0312
    SETDIJ:  cpu time      0.0009: real time      0.0009
     EDDAV:  cpu time      0.1702: real time      0.1722
       DOS:  cpu time      0.0002: real time      0.0002
    CHARGE:  cpu time      0.0206: real time      0.0206
    MIXING:  cpu time      0.0047: real time      0.0047
    --------------------------------------------
      LOOP:  cpu time      0.2277: real time      0.2297

 eigenvalue-minimisations  :   132
 total energy-change (2. order) : 0.1388783E+00  (-0.1991501E-01)
 number of electron       3.9999999 magnetization 
 augmentation part       -0.2793009 magnetization 

 Broyden mixing:
  rms(total) = 0.70566E-01    rms(broyden)= 0.70566E-01
  rms(prec ) = 0.19556E+00
  weight for this iteration     100.00

 eigenvalues of (default mixing * dielectric matrix)
  average eigenvalue GAMMA=   1.9517
  1.9517

 Free energy of the ion-electron system (eV)
  ---------------------------------------------------
  alpha Z        PSCENC =         0.17058756
  Ewald energy   TEWEN  =       -63.10307580
  -Hartree energ DENC   =       -24.19543444
  -exchange      EXHF   =         0.00000000
  -V(xc)+E(xc)   XCENC  =       -10.94030427
  PAW double counting   =        32.04769143      -14.58296479
  entropy T*S    EENTRO =        -0.03239786
  eigenvalues    EBANDS =       -23.55352528
  atomic energy  EATOM  =       103.43326135
  Solvation  Ediel_sol  =         0.00000000
  ---------------------------------------------------
  free energy    TOTEN  =        -0.75616211 eV

  energy without entropy =       -0.72376425  energy(sigma->0) =       -0.73996318


--------------------------------------------------------------------------------------------------------




--------------------------------------- Iteration      2(   3)  ---------------------------------------


    POTLOK:  cpu time      0.0312: real time      0.0313
    SETDIJ:  cpu time      0.0009: real time      0.0009
     EDDAV:  cpu time      0.1582: real time      0.1601
       DOS:  cpu time      0.0002: real time      0.0002
    CHARGE:  cpu time      0.0218: real time      0.0218
    MIXING:  cpu time      0.0048: real time      0.0048
    --------------------------------------------
      LOOP:  cpu time      0.2170: real time      0.2190

 eigenvalue-minimisations  :   120
 total energy-change (2. order) : 0.4828656E-01  (-0.1858863E-01)
 number of electron       3.9999999 magnetization 
 augmentation part       -0.2903048 magnetization 

 Broyden mixing:
  rms(total) = 0.78594E-02    rms(broyden)= 0.78593E-02
  rms(prec ) = 0.14268E-01
  weight for this iteration     100.00

 eigenvalues of (default mixing * dielectric matrix)
  average eigenvalue GAMMA=   1.8153
  1.8153  1.8153

 Free energy of the ion-electron system (eV)
  ---------------------------------------------------
  alpha Z        PSCENC =         0.17058756
  Ewald energy   TEWEN  =       -63.10307580
  -Hartree energ DENC   =       -22.64482374
  -exchange      EXHF   =         0.00000000
  -V(xc)+E(xc)   XCENC  =       -11.02987166
  PAW double counting   =        31.90120838      -14.42905193
  entropy T*S    EENTRO =        -0.03565801
  eigenvalues    EBANDS =       -24.97045170
  atomic energy  EATOM  =       103.43326135
  Solvation  Ediel_sol  =         0.00000000
  ---------------------------------------------------
  free energy    TOTEN  =        -0.70787555 eV

  energy without entropy =       -0.67221754  energy(sigma->0) =       -0.69004655


--------------------------------------------------------------------------------------------------------




--------------------------------------- Iteration      2(   4)  ---------------------------------------


    POTLOK:  cpu time      0.0318: real time      0.0341
    SETDIJ:  cpu time      0.0009: real time      0.0009
     EDDAV:  cpu time      0.1639: real time      0.1671
       DOS:  cpu time      0.0002: real time      0.0002
    CHARGE:  cpu time      0.0221: real time      0.0221
    MIXING:  cpu time      0.0049: real time      0.0049
    --------------------------------------------
      LOOP:  cpu time      0.2237: real time      0.2292

 eigenvalue-minimisations  :   126
 total energy-change (2. order) :-0.1103321E-03  (-0.1163766E-03)
 number of electron       3.9999999 magnetization 
 augmentation part       -0.2907174 magnetization 

 Broyden mixing:
  rms(total) = 0.30137E-02    rms(broyden)= 0.30137E-02
  rms(prec ) = 0.75442E-02
  weight for this iteration     100.00

 eigenvalues of (default mixing * dielectric matrix)
  average eigenvalue GAMMA=   1.9118
  1.1437  1.9270  2.6648

 Free energy of the ion-electron system (eV)
  ---------------------------------------------------
  alpha Z        PSCENC =         0.17058756
  Ewald energy   TEWEN  =       -63.10307580
  -Hartree energ DENC   =       -22.61120651
  -exchange      EXHF   =         0.00000000
  -V(xc)+E(xc)   XCENC  =       -11.02655928
  PAW double counting   =        32.52084301      -15.06884225
  entropy T*S    EENTRO =        -0.03552267
  eigenvalues    EBANDS =       -24.98747130
  atomic energy  EATOM  =       103.43326135
  Solvation  Ediel_sol  =         0.00000000
  ---------------------------------------------------
  free energy    TOTEN  =        -0.70798588 eV

  energy without entropy =       -0.67246322  energy(sigma->0) =       -0.69022455


--------------------------------------------------------------------------------------------------------




--------------------------------------- Iteration      2(   5)  ---------------------------------------


    POTLOK:  cpu time      0.0314: real time      0.0314
    SETDIJ:  cpu time      0.0009: real time      0.0009
     EDDAV:  cpu time      0.1587: real time      0.1607
       DOS:  cpu time      0.0002: real time      0.0002
    CHARGE:  cpu time      0.0218: real time      0.0218
    MIXING:  cpu time      0.0049: real time      0.0049
    --------------------------------------------
      LOOP:  cpu time      0.2178: real time      0.2198

 eigenvalue-minimisations  :   120
 total energy-change (2. order) :-0.2331739E-03  (-0.2079199E-04)
 number of electron       3.9999999 magnetization 
 augmentation part       -0.2909072 magnetization 

 Broyden mixing:
  rms(total) = 0.11735E-02    rms(broyden)= 0.11735E-02
  rms(prec ) = 0.27107E-02
  weight for this iteration     100.00

 eigenvalues of (default mixing * dielectric matrix)
  average eigenvalue GAMMA=   2.1521
  1.0772  3.1843  1.8630  2.4840

 Free energy of the ion-electron system (eV)
  ---------------------------------------------------
  alpha Z        PSCENC =         0.17058756
  Ewald energy   TEWEN  =       -63.10307580
  -Hartree energ DENC   =       -22.54978276
  -exchange      EXHF   =         0.00000000
  -V(xc)+E(xc)   XCENC  =       -11.02836700
  PAW double counting   =        32.96313289      -15.52662454
  entropy T*S    EENTRO =        -0.03544582
  eigenvalues    EBANDS =       -25.03190493
  atomic energy  EATOM  =       103.43326135
  Solvation  Ediel_sol  =         0.00000000
  ---------------------------------------------------
  free energy    TOTEN  =        -0.70821906 eV

  energy without entropy =       -0.67277323  energy(sigma->0) =       -0.69049615


--------------------------------------------------------------------------------------------------------




--------------------------------------- Iteration      2(   6)  ---------------------------------------


    POTLOK:  cpu time      0.0313: real time      0.0313
    SETDIJ:  cpu time      0.0008: real time      0.0008
     EDDAV:  cpu time      0.1758: real time      0.1779
       DOS:  cpu time      0.0002: real time      0.0002
    CHARGE:  cpu time      0.0215: real time      0.0215
    MIXING:  cpu time      0.0049: real time      0.0049
    --------------------------------------------
      LOOP:  cpu time      0.2345: real time      0.2367

 eigenvalue-minimisations  :   138
 total energy-change (2. order) :-0.2707028E-04  (-0.2990497E-05)
 number of electron       3.9999999 magnetization 
 augmentation part       -0.2908734 magnetization 

 Broyden mixing:
  rms(total) = 0.41126E-03    rms(broyden)= 0.41126E-03
  rms(prec ) = 0.68356E-03
  weight for this iteration     100.00

 eigenvalues of (default mixing * dielectric matrix)
  average eigenvalue GAMMA=   2.1574
  4.1403  2.6042  1.9233  0.9739  1.1452

 Free energy of the ion-electron system (eV)
  ---------------------------------------------------
  alpha Z        PSCENC =         0.17058756
  Ewald energy   TEWEN  =       -63.10307580
  -Hartree energ DENC   =       -22.54325496
  -exchange      EXHF   =         0.00000000
  -V(xc)+E(xc)   XCENC  =       -11.03131756
  PAW double counting   =        32.87067488      -15.43163078
  entropy T*S    EENTRO =        -0.03539806
  eigenvalues    EBANDS =       -25.03809276
  atomic energy  EATOM  =       103.43326135
  Solvation  Ediel_sol  =         0.00000000
  ---------------------------------------------------
  free energy    TOTEN  =        -0.70824613 eV

  energy without entropy =       -0.67284807  energy(sigma->0) =       -0.69054710


--------------------------------------------------------------------------------------------------------




--------------------------------------- Iteration      2(   7)  ---------------------------------------


    POTLOK:  cpu time      0.0321: real time      0.0348
    SETDIJ:  cpu time      0.0008: real time      0.0008
     EDDAV:  cpu time      0.1791: real time      0.1814
       DOS:  cpu time      0.0002: real time      0.0002
    --------------------------------------------
      LOOP:  cpu time      0.2123: real time      0.2172

 eigenvalue-minimisations  :   138
 total energy-change (2. order) :-0.2285181E-06  (-0.2245677E-06)
 number of electron       3.9999999 magnetization 
 augmentation part       -0.2908734 magnetization 

 Free energy of the ion-electron system (eV)
  ---------------------------------------------------
  alpha Z        PSCENC =         0.17058756
  Ewald energy   TEWEN  =       -63.10307580
  -Hartree energ DENC   =       -22.53865997
  -exchange      EXHF   =         0.00000000
  -V(xc)+E(xc)   XCENC  =       -11.03235645
  PAW double counting   =        32.81756662      -15.37669700
  entropy T*S    EENTRO =        -0.03540379
  eigenvalues    EBANDS =       -25.04346887
  atomic energy  EATOM  =       103.43326135
  Solvation  Ediel_sol  =         0.00000000
  ---------------------------------------------------
  free energy    TOTEN  =        -0.70824636 eV

  energy without entropy =       -0.67284256  energy(sigma->0) =       -0.69054446


--------------------------------------------------------------------------------------------------------




 average (electrostatic) potential at core
  the test charge radii are     0.9892
  (the norm of the test charge is              1.0000)
       1 -95.3167
 
 
 
 E-fermi :  -2.8477     XC(G=0):  -4.1175     alpha+bet : -1.7415

 Fermi energy:        -2.8476798133

 k-point     1 :       0.0000    0.0000    0.0000
  band No.  band energies     occupation 
      1      -9.6079      2.00000
      2      -2.3872      0.00000
      3      -2.3872      0.00000
      4      -2.3872      0.00000
      5       0.1820      0.00000
      6       2.6083      0.00000

 k-point     2 :       0.2500    0.0000    0.0000
  band No.  band energies     occupation 
      1      -9.5681      2.00000
      2      -2.8926      1.47439
      3      -2.3422      0.00000
      4      -2.3422      0.00000
      5       0.7740      0.00000
      6       2.8277      0.00000

 k-point     3 :       0.5000    0.0000    0.0000
  band No.  band energies     occupation 
      1      -9.5268      2.00000
      2      -3.2751      2.00000
      3      -2.2954      0.00000
      4      -2.2954      0.00000
      5       1.5435      0.00000
      6       2.3600      0.00000

 k-point     4 :       0.2500    0.2500    0.0000
  band No.  band energies     occupation 
      1      -9.5297      2.00000
      2      -2.8578      1.11354
      3      -2.7707      0.27648
      4      -2.2997      0.00000
      5       1.2854      0.00000
      6       2.7154      0.00000

 k-point     5 :       0.5000    0.2500    0.0000
  band No.  band energies     occupation 
      1      -9.4899      2.00000
      2      -3.1830      2.00000
      3      -2.7318      0.10135
      4      -2.2556      0.00000
      5       1.8451      0.00000
      6       2.1825      0.00000

 k-point     6 :       0.5000    0.5000    0.0000
  band No.  band energies     occupation 
      1      -9.4518      2.00000
      2      -3.0813      1.99905
      3      -3.0813      1.99905
      4      -2.2142      0.00000
      5       1.3616      0.00000
      6       2.8467      0.00000

 k-point     7 :       0.2500    0.2500    0.2500
  band No.  band energies     occupation 
      1      -9.4925      2.00000
      2      -2.8158      0.65202
      3      -2.7071      0.04681
      4      -2.7071      0.04681
      5       1.6459      0.00000
      6       3.1663      0.00000

 k-point     8 :       0.5000    0.2500    0.2500
  band No.  band energies     occupation 
      1      -9.4542      2.00000
      2      -3.0982      1.99960
      3      -2.6979      0.03413
      4      -2.6394      0.00323
      5       1.8918      0.00000
      6       2.7264      0.00000

 k-point     9 :       0.5000    0.5000    0.2500
  band No.  band energies     occupation 
      1      -9.4172      2.00000
      2      -3.0056      1.97450
      3      -3.0056      1.97450
      4      -2.6023      0.00052
      5       1.6540      0.00000
      6       2.7518      0.00000

 k-point    10 :       0.5000    0.5000    0.5000
  band No.  band energies     occupation 
      1      -9.3816      2.00000
      2      -2.9239      1.71905
      3      -2.9239      1.71905
      4      -2.9239      1.71905
      5       2.1604      0.00000
      6       2.1604      0.00000


--------------------------------------------------------------------------------------------------------


 soft charge-density along one line, spin component           1
         0         1         2         3         4         5         6         7         8         9
 total charge-density along one line
 
 pseudopotential strength for first ion, spin component:           1
 20.688   0.008   0.000  -0.000  -0.000  -0.000   0.000   0.000
  0.008   0.006  -0.000   0.000   0.000   0.000  -0.000  -0.000
  0.000  -0.000   4.528   0.000   0.000   0.002  -0.000  -0.000
 -0.000   0.000   0.000   4.528   0.000  -0.000   0.002  -0.000
 -0.000   0.000   0.000   0.000   4.528  -0.000  -0.000   0.002
 -0.000   0.000   0.002  -0.000  -0.000   0.004   0.000   0.000
  0.000  -0.000  -0.000   0.002  -0.000   0.000   0.004   0.000
  0.000  -0.000  -0.000  -0.000   0.002   0.000   0.000   0.004
 total augmentation occupancy for first ion, spin component:           1
  2.038   0.132   0.000   0.000   0.000   0.000   0.000   0.000
  0.132   0.017   0.000   0.000   0.000   0.000   0.000   0.000
  0.000   0.000   0.611  -0.000  -0.000   0.002   0.000  -0.000
  0.000   0.000  -0.000   0.611  -0.000  -0.000   0.002  -0.000
  0.000   0.000  -0.000  -0.000   0.611  -0.000   0.000   0.002
  0.000   0.000   0.002  -0.000  -0.000   0.000   0.000   0.000
  0.000   0.000   0.000   0.002   0.000   0.000   0.000   0.000
  0.000   0.000  -0.000  -0.000   0.002   0.000   0.000   0.000


------------------------ aborting loop because EDIFF is reached ----------------------------------------


    CHARGE:  cpu time      0.0228: real time      0.0228
    FORLOC:  cpu time      0.0054: real time      0.0054
    FORNL :  cpu time      0.0569: real time      0.0587
    STRESS:  cpu time      0.1745: real time      0.1745
    FORCOR:  cpu time      0.0362: real time      0.0363
    FORHAR:  cpu time      0.0302: real time      0.0302
    MIXING:  cpu time      0.0050: real time      0.0050
    OFIELD:  cpu time      0.0000: real time      0.0000

  FORCE on cell =-STRESS in cart. coord.  units (eV):
  Direction    XX          YY          ZZ          XY          YZ          ZX
  --------------------------------------------------------------------------------------
  Alpha Z     0.17059     0.17059     0.17059
  Ewald     -21.03436   -21.03436   -21.03436     0.00000     0.00000    -0.00000
  Hartree     7.51307     7.51307     7.51307    -0.00000    -0.00000    -0.00000
  E(xc)     -10.65781   -10.65781   -10.65781    -0.00000     0.00000    -0.00000
  Local     -33.81423   -33.81423   -33.81423    -0.00000    -0.00000    -0.00000
  n-local    45.63506    40.47861    38.05497     0.59647     0.16622     0.14848
  augment    -7.55454    -7.55454    -7.55454     0.00000     0.00000     0.00000
  Kinetic    28.83107    21.81097    17.84060     0.81814     0.26176     0.20968
  Fock        0.00000     0.00000     0.00000     0.00000     0.00000     0.00000
  -------------------------------------------------------------------------------------
  Total      -1.16019    -1.16019    -1.16019    -0.00000    -0.00000    -0.00000
  in kB     -13.37633   -13.37633   -13.37633    -0.00000    -0.00000    -0.00000
  external pressure =      -13.38 kB  Pullay stress =        0.00 kB


 VOLUME and BASIS-vectors are now :
 -----------------------------------------------------------------------------
  energy-cutoff  :      520.00
  volume of cell :      138.96
      direct lattice vectors                 reciprocal lattice vectors
     5.179649897  0.000000000 -0.000000000     0.193063242 -0.000000000 -0.000000000
     0.000000000  5.179649897  0.000000000    -0.000000000  0.193063242 -0.000000000
     0.000000000  0.000000000  5.179649897     0.000000000 -0.000000000  0.193063242

  length of vectors
     5.179649897  5.179649897  5.179649897     0.193063242  0.193063242  0.193063242


 FORCES acting on ions
    electron-ion (+dipol)            ewald-force                    non-local-force                 convergence-correction
 -----------------------------------------------------------------------------------------------
   -.193E-14 0.259E-16 -.282E-15   0.498E-16 0.797E-17 -.549E-16   -.667E-25 -.587E-25 -.192E-25   0.126E-14 0.118E-14 0.667E-15
 -----------------------------------------------------------------------------------------------
   -.193E-14 0.259E-16 -.282E-15   0.498E-16 0.797E-17 -.549E-16   -.667E-25 -.587E-25 -.192E-25   0.126E-14 0.118E-14 0.667E-15
 
 
 POSITION                                       TOTAL-FORCE (eV/Angst)
 -----------------------------------------------------------------------------------
      0.00000      0.00000      0.00000         0.000000      0.000000      0.000000
 -----------------------------------------------------------------------------------
    total drift:                               -0.000000      0.000000      0.000000


--------------------------------------------------------------------------------------------------------



  FREE ENERGIE OF THE ION-ELECTRON SYSTEM (eV)
  ---------------------------------------------------
  free  energy   TOTEN  =        -0.70824636 eV

  energy  without entropy=       -0.67284256  energy(sigma->0) =       -0.69054446
 
 d Force = 0.0000000E+00[ 0.000E+00, 0.000E+00]  d Energy = 0.1493727E+00-0.149E+00
 d Force = 0.0000000E+00[ 0.000E+00, 0.000E+00]  d Ewald  = 0.2909367E+01-0.291E+01


--------------------------------------------------------------------------------------------------------


    POTLOK:  cpu time      0.0326: real time      0.0663


--------------------------------------------------------------------------------------------------------


 Steepest descent step on ions:
 trial-energy change:   -0.149373  1 .order   -0.146329   -0.132186   -0.160471
  (g-gl).g = 0.132E+00      g.g   = 0.132E+00  gl.gl    = 0.000E+00
 g(Force)  = 0.258E-66   g(Stress)= 0.132E+00 ortho     = 0.000E+00
 gamma     =   0.00000
 trial     =   1.00000
 opt step  =   4.00000  (harmonic =   4.00000) maximal distance =0.00000000
 next E    =    -1.073711   (d E  =  -0.51484)


--------------------------------------------------------------------------------------------------------


    WAVPRE:  cpu time      0.0286: real time      0.0398
    FEWALD:  cpu time      0.0001: real time      0.0001
    GENKIN:  cpu time      0.0057: real time      0.0057
    ORTHCH:  cpu time      0.0196: real time      0.0196
     LOOP+:  cpu time      1.9713: real time      2.2828


--------------------------------------- Iteration      3(   1)  ---------------------------------------


    POTLOK:  cpu time      0.0330: real time      0.0331
    SETDIJ:  cpu time      0.0012: real time      0.0012
     EDDAV:  cpu time      0.1600: real time      0.1613
       DOS:  cpu time      0.0002: real time      0.0002
    CHARGE:  cpu time      0.0185: real time      0.0185
    MIXING:  cpu time      0.0046: real time      0.0046
    --------------------------------------------
      LOOP:  cpu time      0.2175: real time      0.2188

 eigenvalue-minimisations  :   120
 total energy-change (2. order) :-0.2691232E+01  (-0.5001470E+01)
 number of electron       4.0000000 magnetization 
 augmentation part       -0.2241009 magnetization 

 Broyden mixing:
  rms(total) = 0.46922E+00    rms(broyden)= 0.46922E+00
  rms(prec ) = 0.14111E+01
  weight for this iteration     100.00

 Free energy of the ion-electron system (eV)
  ---------------------------------------------------
  alpha Z        PSCENC =         0.27292877
  Ewald energy   TEWEN  =       -73.80478489
  -Hartree energ DENC   =       -26.36096459
  -exchange      EXHF   =         0.00000000
  -V(xc)+E(xc)   XCENC  =       -10.38225971
  PAW double counting   =        32.83151259      -15.39086975
  entropy T*S    EENTRO =        -0.01182330
  eigenvalues    EBANDS =       -13.98647880
  atomic energy  EATOM  =       103.43326135
  Solvation  Ediel_sol  =         0.00000000
  ---------------------------------------------------
  free energy    TOTEN  =        -3.39947834 eV

  energy without entropy =       -3.38765503  energy(sigma->0) =       -3.39356669


--------------------------------------------------------------------------------------------------------




--------------------------------------- Iteration      3(   2)  ---------------------------------------


    POTLOK:  cpu time      0.0326: real time      0.0752
    SETDIJ:  cpu time      0.0012: real time      0.0012
     EDDAV:  cpu time      0.1590: real time      0.1727
       DOS:  cpu time      0.0002: real time      0.0002
    CHARGE:  cpu time      0.0180: real time      0.0181
    MIXING:  cpu time      0.0045: real time      0.0045
    --------------------------------------------
      LOOP:  cpu time      0.2155: real time      0.2717

 eigenvalue-minimisations  :   120
 total energy-change (2. order) : 0.1429869E+01  (-0.1672548E+00)
 number of electron       4.0000000 magnetization 
 augmentation part       -0.2521014 magnetization 

 Broyden mixing:
  rms(total) = 0.24600E+00    rms(broyden)= 0.24600E+00
  rms(prec ) = 0.73267E+00
  weight for this iteration     100.00

 eigenvalues of (default mixing * dielectric matrix)
  average eigenvalue GAMMA=   2.0655
  2.0655

 Free energy of the ion-electron system (eV)
  ---------------------------------------------------
  alpha Z        PSCENC =         0.27292877
  Ewald energy   TEWEN  =       -73.80478489
  -Hartree energ DENC   =       -20.88357681
  -exchange      EXHF   =         0.00000000
  -V(xc)+E(xc)   XCENC  =       -10.76668228
  PAW double counting   =        30.31866525      -12.79875009
  entropy T*S    EENTRO =        -0.01444262
  eigenvalues    EBANDS =       -17.72622829
  atomic energy  EATOM  =       103.43326135
  Solvation  Ediel_sol  =         0.00000000
  ---------------------------------------------------
  free energy    TOTEN  =        -1.96960961 eV

  energy without entropy =       -1.95516699  energy(sigma->0) =       -1.96238830


--------------------------------------------------------------------------------------------------------




--------------------------------------- Iteration      3(   3)  ---------------------------------------


    POTLOK:  cpu time      0.0314: real time      0.0432
    SETDIJ:  cpu time      0.0011: real time      0.0011
     EDDAV:  cpu time      0.1608: real time      0.1762
       DOS:  cpu time      0.0002: real time      0.0002
    CHARGE:  cpu time      0.0190: real time      0.0190
    MIXING:  cpu time      0.0047: real time      0.0047
    --------------------------------------------
      LOOP:  cpu time      0.2173: real time      0.2603

 eigenvalue-minimisations  :   120
 total energy-change (2. order) : 0.5347952E+00  (-0.1921252E+00)
 number of electron       4.0000000 magnetization 
 augmentation part       -0.2888747 magnetization 

 Broyden mixing:
  rms(total) = 0.27905E-01    rms(broyden)= 0.27905E-01
  rms(prec ) = 0.46872E-01
  weight for this iteration     100.00

 eigenvalues of (default mixing * dielectric matrix)
  average eigenvalue GAMMA=   1.9785
  1.9785  1.9785

 Free energy of the ion-electron system (eV)
  ---------------------------------------------------
  alpha Z        PSCENC =         0.27292877
  Ewald energy   TEWEN  =       -73.80478489
  -Hartree energ DENC   =       -15.97605141
  -exchange      EXHF   =         0.00000000
  -V(xc)+E(xc)   XCENC  =       -11.01779946
  PAW double counting   =        29.77498393      -12.23107842
  entropy T*S    EENTRO =        -0.01708649
  eigenvalues    EBANDS =       -21.86918774
  atomic energy  EATOM  =       103.43326135
  Solvation  Ediel_sol  =         0.00000000
  ---------------------------------------------------
  free energy    TOTEN  =        -1.43481436 eV

  energy without entropy =       -1.41772788  energy(sigma->0) =       -1.42627112


--------------------------------------------------------------------------------------------------------




--------------------------------------- Iteration      3(   4)  ---------------------------------------


    POTLOK:  cpu time      0.0309: real time      0.0467
    SETDIJ:  cpu time      0.0015: real time      0.0047
     EDDAV:  cpu time      0.1600: real time      0.1601
       DOS:  cpu time      0.0002: real time      0.0002
    CHARGE:  cpu time      0.0183: real time      0.0183
    MIXING:  cpu time      0.0047: real time      0.0184
    --------------------------------------------
      LOOP:  cpu time      0.2155: real time      0.2325

 eigenvalue-minimisations  :   120
 total energy-change (2. order) : 0.2003470E-02  (-0.1740588E-02)
 number of electron       4.0000000 magnetization 
 augmentation part       -0.2897498 magnetization 

 Broyden mixing:
  rms(total) = 0.88164E-02    rms(broyden)= 0.88163E-02
  rms(prec ) = 0.17138E-01
  weight for this iteration     100.00

 eigenvalues of (default mixing * dielectric matrix)
  average eigenvalue GAMMA=   1.8878
  1.1813  1.9374  2.5447

 Free energy of the ion-electron system (eV)
  ---------------------------------------------------
  alpha Z        PSCENC =         0.27292877
  Ewald energy   TEWEN  =       -73.80478489
  -Hartree energ DENC   =       -16.04602132
  -exchange      EXHF   =         0.00000000
  -V(xc)+E(xc)   XCENC  =       -10.98225418
  PAW double counting   =        31.65294055      -14.16951502
  entropy T*S    EENTRO =        -0.01688834
  eigenvalues    EBANDS =       -21.77247780
  atomic energy  EATOM  =       103.43326135
  Solvation  Ediel_sol  =         0.00000000
  ---------------------------------------------------
  free energy    TOTEN  =        -1.43281089 eV

  energy without entropy =       -1.41592255  energy(sigma->0) =       -1.42436672


--------------------------------------------------------------------------------------------------------




--------------------------------------- Iteration      3(   5)  ---------------------------------------


    POTLOK:  cpu time      0.0310: real time      0.0562
    SETDIJ:  cpu time      0.0011: real time      0.0011
     EDDAV:  cpu time      0.1598: real time      0.1779
[...]
    SETDIJ:  cpu time      0.0032: real time      0.0032
     EDDAV:  cpu time      0.1795: real time      0.1796
       DOS:  cpu time      0.0002: real time      0.0002
    CHARGE:  cpu time      0.0190: real time      0.0191
    MIXING:  cpu time      0.0046: real time      0.0046
    --------------------------------------------
      LOOP:  cpu time      0.2372: real time      0.2579

 eigenvalue-minimisations  :   120
 total energy-change (2. order) : 0.3326411E+01  (-0.6819518E+00)
 number of electron       4.0000000 magnetization 
 augmentation part       -0.2618052 magnetization 

 Broyden mixing:
  rms(total) = 0.73182E-01    rms(broyden)= 0.73182E-01
  rms(prec ) = 0.17242E+00
  weight for this iteration     100.00

 eigenvalues of (default mixing * dielectric matrix)
  average eigenvalue GAMMA=   2.0945
  2.0945  2.0945

 Free energy of the ion-electron system (eV)
  ---------------------------------------------------
  alpha Z        PSCENC =         0.94580898
  Ewald energy   TEWEN  =      -111.68698262
  -Hartree energ DENC   =        -3.53423219
  -exchange      EXHF   =         0.00000000
  -V(xc)+E(xc)   XCENC  =        -9.94575071
  PAW double counting   =        28.47534895      -10.88457163
  entropy T*S    EENTRO =        -0.00633791
  eigenvalues    EBANDS =        -1.55501077
  atomic energy  EATOM  =       103.43326135
  Solvation  Ediel_sol  =         0.00000000
  ---------------------------------------------------
  free energy    TOTEN  =        -4.75846655 eV

  energy without entropy =       -4.75212864  energy(sigma->0) =       -4.75529760


--------------------------------------------------------------------------------------------------------




--------------------------------------- Iteration      4(   4)  ---------------------------------------


    POTLOK:  cpu time      0.0309: real time      0.0334
    SETDIJ:  cpu time      0.0032: real time      0.0032
     EDDAV:  cpu time      0.1786: real time      0.1787
       DOS:  cpu time      0.0002: real time      0.0002
    CHARGE:  cpu time      0.0194: real time      0.0195
    MIXING:  cpu time      0.0049: real time      0.0049
    --------------------------------------------
      LOOP:  cpu time      0.2373: real time      0.2398

 eigenvalue-minimisations  :   120
 total energy-change (2. order) : 0.1532378E-01  (-0.3806124E-02)
 number of electron       4.0000000 magnetization 
 augmentation part       -0.2611603 magnetization 

 Broyden mixing:
  rms(total) = 0.28157E-01    rms(broyden)= 0.28157E-01
  rms(prec ) = 0.66841E-01
  weight for this iteration     100.00

 eigenvalues of (default mixing * dielectric matrix)
  average eigenvalue GAMMA=   1.8996
  0.9760  2.5177  2.2052

 Free energy of the ion-electron system (eV)
  ---------------------------------------------------
  alpha Z        PSCENC =         0.94580898
  Ewald energy   TEWEN  =      -111.68698262
  -Hartree energ DENC   =        -3.84490395
  -exchange      EXHF   =         0.00000000
  -V(xc)+E(xc)   XCENC  =        -9.86166533
  PAW double counting   =        31.58234459      -14.09386914
  entropy T*S    EENTRO =        -0.00587986
  eigenvalues    EBANDS =        -1.21125681
  atomic energy  EATOM  =       103.43326135
  Solvation  Ediel_sol  =         0.00000000
  ---------------------------------------------------
  free energy    TOTEN  =        -4.74314277 eV

  energy without entropy =       -4.73726292  energy(sigma->0) =       -4.74020285


--------------------------------------------------------------------------------------------------------




--------------------------------------- Iteration      4(   5)  ---------------------------------------


    POTLOK:  cpu time      0.0313: real time      0.0694
    SETDIJ:  cpu time      0.0032: real time      0.0032
     EDDAV:  cpu time      0.1875: real time      0.1876
       DOS:  cpu time      0.0002: real time      0.0002
    CHARGE:  cpu time      0.0193: real time      0.0193
    MIXING:  cpu time      0.0049: real time      0.0049
    --------------------------------------------
      LOOP:  cpu time      0.2464: real time      0.2972

 eigenvalue-minimisations  :   126
 total energy-change (2. order) : 0.2795632E-02  (-0.1474905E-03)
 number of electron       4.0000000 magnetization 
 augmentation part       -0.2623668 magnetization 

 Broyden mixing:
  rms(total) = 0.29686E-02    rms(broyden)= 0.29686E-02
  rms(prec ) = 0.65493E-02
  weight for this iteration     100.00

 eigenvalues of (default mixing * dielectric matrix)
  average eigenvalue GAMMA=   1.8745
  1.0036  2.5948  2.2635  1.6360

 Free energy of the ion-electron system (eV)
  ---------------------------------------------------
  alpha Z        PSCENC =         0.94580898
  Ewald energy   TEWEN  =      -111.68698262
  -Hartree energ DENC   =        -3.87176946
  -exchange      EXHF   =         0.00000000
  -V(xc)+E(xc)   XCENC  =        -9.80457951
  PAW double counting   =        32.97481108      -15.53672195
  entropy T*S    EENTRO =        -0.00589499
  eigenvalues    EBANDS =        -1.18828003
  atomic energy  EATOM  =       103.43326135
  Solvation  Ediel_sol  =         0.00000000
  ---------------------------------------------------
  free energy    TOTEN  =        -4.74034714 eV

  energy without entropy =       -4.73445215  energy(sigma->0) =       -4.73739965


--------------------------------------------------------------------------------------------------------




--------------------------------------- Iteration      4(   6)  ---------------------------------------


    POTLOK:  cpu time      0.0311: real time      0.0438
    SETDIJ:  cpu time      0.0031: real time      0.0031
     EDDAV:  cpu time      0.1996: real time      0.1997
       DOS:  cpu time      0.0002: real time      0.0001
    CHARGE:  cpu time      0.0197: real time      0.0197
    MIXING:  cpu time      0.0050: real time      0.0050
    --------------------------------------------
      LOOP:  cpu time      0.2586: real time      0.2587

 eigenvalue-minimisations  :   138
 total energy-change (2. order) :-0.8162164E-05  (-0.2322634E-05)
 number of electron       4.0000000 magnetization 
 augmentation part       -0.2624388 magnetization 

 Broyden mixing:
  rms(total) = 0.11055E-02    rms(broyden)= 0.11055E-02
  rms(prec ) = 0.22508E-02
  weight for this iteration     100.00

 eigenvalues of (default mixing * dielectric matrix)
  average eigenvalue GAMMA=   1.8844
  2.6004  2.6004  2.2132  0.9733  1.0346

 Free energy of the ion-electron system (eV)
  ---------------------------------------------------
  alpha Z        PSCENC =         0.94580898
  Ewald energy   TEWEN  =      -111.68698262
  -Hartree energ DENC   =        -3.88026750
  -exchange      EXHF   =         0.00000000
  -V(xc)+E(xc)   XCENC  =        -9.80003449
  PAW double counting   =        32.92878820      -15.49238920
  entropy T*S    EENTRO =        -0.00589317
  eigenvalues    EBANDS =        -1.18264686
  atomic energy  EATOM  =       103.43326135
  Solvation  Ediel_sol  =         0.00000000
  ---------------------------------------------------
  free energy    TOTEN  =        -4.74035530 eV

  energy without entropy =       -4.73446213  energy(sigma->0) =       -4.73740872


--------------------------------------------------------------------------------------------------------




--------------------------------------- Iteration      4(   7)  ---------------------------------------


    POTLOK:  cpu time      0.0314: real time      0.0608
    SETDIJ:  cpu time      0.0033: real time      0.0033
     EDDAV:  cpu time      0.1708: real time      0.1709
       DOS:  cpu time      0.0001: real time      0.0001
    CHARGE:  cpu time      0.0204: real time      0.0204
    MIXING:  cpu time      0.0051: real time      0.0051
    --------------------------------------------
      LOOP:  cpu time      0.2311: real time      0.2606

 eigenvalue-minimisations  :   114
 total energy-change (2. order) : 0.1863482E-05  (-0.1875591E-06)
 number of electron       4.0000000 magnetization 
 augmentation part       -0.2624702 magnetization 

 Broyden mixing:
  rms(total) = 0.77826E-04    rms(broyden)= 0.77826E-04
  rms(prec ) = 0.24114E-03
  weight for this iteration     100.00

 eigenvalues of (default mixing * dielectric matrix)
  average eigenvalue GAMMA=   1.8549
  1.0038  1.0038  2.5872  2.5872  2.1480  1.7993

 Free energy of the ion-electron system (eV)
  ---------------------------------------------------
  alpha Z        PSCENC =         0.94580898
  Ewald energy   TEWEN  =      -111.68698262
  -Hartree energ DENC   =        -3.87984824
  -exchange      EXHF   =         0.00000000
  -V(xc)+E(xc)   XCENC  =        -9.80035403
  PAW double counting   =        32.81320034      -15.37458955
  entropy T*S    EENTRO =        -0.00589856
  eigenvalues    EBANDS =        -1.18495112
  atomic energy  EATOM  =       103.43326135
  Solvation  Ediel_sol  =         0.00000000
  ---------------------------------------------------
  free energy    TOTEN  =        -4.74035344 eV

  energy without entropy =       -4.73445488  energy(sigma->0) =       -4.73740416


--------------------------------------------------------------------------------------------------------




--------------------------------------- Iteration      4(   8)  ---------------------------------------


    POTLOK:  cpu time      0.0309: real time      0.0333
    SETDIJ:  cpu time      0.0032: real time      0.0032
     EDDAV:  cpu time      0.1189: real time      0.1189
       DOS:  cpu time      0.0001: real time      0.0001
    --------------------------------------------
      LOOP:  cpu time      0.1531: real time      0.1556

 eigenvalue-minimisations  :    66
 total energy-change (2. order) :-0.2501734E-07  (-0.3259784E-08)
 number of electron       4.0000000 magnetization 
 augmentation part       -0.2624702 magnetization 

 Free energy of the ion-electron system (eV)
  ---------------------------------------------------
  alpha Z        PSCENC =         0.94580898
  Ewald energy   TEWEN  =      -111.68698262
  -Hartree energ DENC   =        -3.88014392
  -exchange      EXHF   =         0.00000000
  -V(xc)+E(xc)   XCENC  =        -9.80032918
  PAW double counting   =        32.81482487      -15.37623300
  entropy T*S    EENTRO =        -0.00589820
  eigenvalues    EBANDS =        -1.18466175
  atomic energy  EATOM  =       103.43326135
  Solvation  Ediel_sol  =         0.00000000
  ---------------------------------------------------
  free energy    TOTEN  =        -4.74035347 eV

  energy without entropy =       -4.73445526  energy(sigma->0) =       -4.73740436


--------------------------------------------------------------------------------------------------------




 average (electrostatic) potential at core
  the test charge radii are     0.9892
  (the norm of the test charge is              1.0000)
       1 -87.6061
 
 
 
 E-fermi :   4.0793     XC(G=0):  -9.0691     alpha+bet : -9.6558

 Fermi energy:         4.0792931508

 k-point     1 :       0.0000    0.0000    0.0000
  band No.  band energies     occupation 
      1      -6.3286      2.00000
      2       8.8798      0.00000
      3       8.8798      0.00000
      4       8.8798      0.00000
      5      11.0049      0.00000
      6      14.5175      0.00000

 k-point     2 :       0.2500    0.0000    0.0000
  band No.  band energies     occupation 
      1      -5.3783      2.00000
      2       3.4276      2.00000
      3       9.5912      0.00000
      4       9.5912      0.00000
      5      11.7579      0.00000
      6      14.2147      0.00000

 k-point     3 :       0.5000    0.0000    0.0000
  band No.  band energies     occupation 
      1      -3.5662      2.00000
      2      -0.2919      2.00000
      3      10.6683      0.00000
      4      10.6683      0.00000
      5      12.8482      0.00000
      6      17.1861      0.00000

 k-point     4 :       0.2500    0.2500    0.0000
  band No.  band energies     occupation 
      1      -4.4288      2.00000
      2       3.9716      1.87210
      3       4.6150      0.00000
      4      10.2848      0.00000
      5      13.1029      0.00000
      6      14.3788      0.00000

 k-point     5 :       0.5000    0.2500    0.0000
  band No.  band energies     occupation 
      1      -2.6055      2.00000
      2       0.5666      2.00000
      3       5.7256      0.00000
      4      10.1959      0.00000
      5      11.3229      0.00000
      6      15.6360      0.00000

 k-point     6 :       0.5000    0.5000    0.0000
  band No.  band energies     occupation 
      1      -0.6726      2.00000
      2       2.0055      2.00000
      3       2.0055      2.00000
      4       6.7332      0.00000
      5      12.2839      0.00000
      6      17.4326      0.00000

 k-point     7 :       0.2500    0.2500    0.2500
  band No.  band energies     occupation 
      1      -3.4803      2.00000
      2       4.7518      0.00000
      3       4.7518      0.00000
      4       6.0119      0.00000
      5      13.9486      0.00000
      6      14.6291      0.00000

 k-point     8 :       0.5000    0.2500    0.2500
  band No.  band energies     occupation 
      1      -1.6449      2.00000
      2       1.4100      2.00000
      3       5.9681      0.00000
      4       7.2898      0.00000
      5      10.7641      0.00000
      6      11.4624      0.00000

 k-point     9 :       0.5000    0.5000    0.2500
  band No.  band energies     occupation 
      1       0.3178      2.00000
      2       2.8020      2.00000
      3       2.8020      2.00000
      4       7.6808      0.00000
      5       8.0434      0.00000
      6      12.6253      0.00000

 k-point    10 :       0.5000    0.5000    0.5000
  band No.  band energies     occupation 
      1       2.6322      2.00000
      2       4.0634      1.17826
      3       4.0634      1.17826
      4       4.0634      1.17826
      5       9.3884      0.00000
      6       9.3884      0.00000


--------------------------------------------------------------------------------------------------------


 soft charge-density along one line, spin component           1
         0         1         2         3         4         5         6         7         8         9
 total charge-density along one line
 
 pseudopotential strength for first ion, spin component:           1
 19.723   0.002  -0.000  -0.000   0.000   0.000   0.000  -0.000
  0.002   0.006   0.000   0.000  -0.000  -0.000  -0.000   0.000
 -0.000   0.000   4.382   0.000   0.000  -0.003  -0.000  -0.000
 -0.000   0.000   0.000   4.382   0.000  -0.000  -0.003  -0.000
  0.000  -0.000   0.000   0.000   4.382  -0.000  -0.000  -0.003
  0.000  -0.000  -0.003  -0.000  -0.000   0.005   0.000   0.000
  0.000  -0.000  -0.000  -0.003  -0.000   0.000   0.005   0.000
 -0.000   0.000  -0.000  -0.000  -0.003   0.000   0.000   0.005
 total augmentation occupancy for first ion, spin component:           1
  1.777  -0.105   0.000   0.000   0.000   0.000   0.000   0.000
 -0.105   0.322   0.000   0.000   0.000   0.000   0.000   0.000
  0.000   0.000   0.710   0.000   0.000  -0.231  -0.000  -0.000
  0.000   0.000   0.000   0.710   0.000  -0.000  -0.231  -0.000
  0.000   0.000   0.000   0.000   0.710  -0.000  -0.000  -0.231
  0.000   0.000  -0.231  -0.000  -0.000   0.110   0.000   0.000
  0.000   0.000  -0.000  -0.231  -0.000   0.000   0.110  -0.000
  0.000   0.000  -0.000   0.000  -0.231   0.000   0.000   0.110


------------------------ aborting loop because EDIFF is reached ----------------------------------------


    CHARGE:  cpu time      0.0207: real time      0.0207
    FORLOC:  cpu time      0.0050: real time      0.0050
    FORNL :  cpu time      0.1030: real time      0.1030
    STRESS:  cpu time      0.3164: real time      0.3165
    FORCOR:  cpu time      0.0358: real time      0.0358
    FORHAR:  cpu time      0.0298: real time      0.0298
    MIXING:  cpu time      0.0051: real time      0.0051
    OFIELD:  cpu time      0.0000: real time      0.0000

  FORCE on cell =-STRESS in cart. coord.  units (eV):
  Direction    XX          YY          ZZ          XY          YZ          ZX
  --------------------------------------------------------------------------------------
  Alpha Z     0.94581     0.94581     0.94581
  Ewald     -37.22899   -37.22899   -37.22899     0.00000     0.00000     0.00000
  Hartree     1.29337     1.29337     1.29337     0.00000    -0.00000    -0.00000
  E(xc)     -11.86911   -11.86911   -11.86911    -0.00000    -0.00000    -0.00000
  Local     -12.59536   -12.59536   -12.59536    -0.00000    -0.00000    -0.00000
  n-local    40.83220    38.63440    37.70916    -1.18419    -0.06597    -0.02266
  augment    -6.82385    -6.82385    -6.82385     0.00000     0.00000     0.00000
  Kinetic    38.89026    23.43068    11.14657    -1.49665     1.67009     0.44570
  Fock        0.00000     0.00000     0.00000     0.00000     0.00000     0.00000
  -------------------------------------------------------------------------------------
  Total      -2.73039    -2.73039    -2.73039    -0.00000    -0.00000    -0.00000
  in kB    -174.53797  -174.53797  -174.53797    -0.00000    -0.00000    -0.00000
  external pressure =     -174.54 kB  Pullay stress =        0.00 kB


 VOLUME and BASIS-vectors are now :
 -----------------------------------------------------------------------------
  energy-cutoff  :      520.00
  volume of cell :       25.06
      direct lattice vectors                 reciprocal lattice vectors
     2.926498974  0.000000000 -0.000000000     0.341705228 -0.000000000 -0.000000000
     0.000000000  2.926498974  0.000000000    -0.000000000  0.341705228 -0.000000000
     0.000000000  0.000000000  2.926498974     0.000000000 -0.000000000  0.341705228

  length of vectors
     2.926498974  2.926498974  2.926498974     0.341705228  0.341705228  0.341705228


 FORCES acting on ions
    electron-ion (+dipol)            ewald-force                    non-local-force                 convergence-correction
 -----------------------------------------------------------------------------------------------
   0.215E-15 0.138E-14 -.201E-15   0.167E-15 -.180E-15 0.136E-15   0.746E-27 -.806E-27 0.567E-26   0.649E-16 0.191E-15 -.417E-16
 -----------------------------------------------------------------------------------------------
   0.215E-15 0.138E-14 -.201E-15   0.167E-15 -.180E-15 0.136E-15   0.746E-27 -.806E-27 0.567E-26   0.649E-16 0.191E-15 -.417E-16
 
 
 POSITION                                       TOTAL-FORCE (eV/Angst)
 -----------------------------------------------------------------------------------
      0.00000      0.00000      0.00000        -0.000000     -0.000000      0.000000
 -----------------------------------------------------------------------------------
    total drift:                                0.000000      0.000000     -0.000000


--------------------------------------------------------------------------------------------------------



  FREE ENERGIE OF THE ION-ELECTRON SYSTEM (eV)
  ---------------------------------------------------
  free  energy   TOTEN  =        -4.74035347 eV

  energy  without entropy=       -4.73445526  energy(sigma->0) =       -4.73740436
 
 d Force = 0.0000000E+00[ 0.000E+00, 0.000E+00]  d Energy = 0.3307656E+01-0.331E+01
 d Force = 0.0000000E+00[ 0.000E+00, 0.000E+00]  d Ewald  = 0.3788220E+02-0.379E+02


--------------------------------------------------------------------------------------------------------


    POTLOK:  cpu time      0.0334: real time      0.0476


--------------------------------------------------------------------------------------------------------




--------------------------------------------------------------------------------------------------------


    WAVPRE:  cpu time      0.0169: real time      0.0290
    FEWALD:  cpu time      0.0000: real time      0.0000
    GENKIN:  cpu time      0.0058: real time      0.0058
