Silicon                                 
           1
     5.430000    0.000000    0.000000
     0.000000    5.430000    0.000000
     0.000000    0.000000    5.430000
   Si
     1
Direct configuration=     1
   0.00000000  0.00000000  0.00000000
Silicon                                 
           1
     5.179650    0.000000   -0.000000
     0.000000    5.179650    0.000000
     0.000000    0.000000    5.179650
   Si
     1
Direct configuration=     2
   0.00000000  0.00000000  0.00000000
Silicon                                 
           1
     4.428600    0.000000   -0.000000
     0.000000    4.428600    0.000000
     0.000000    0.000000    4.428600
   Si
     1
Direct configuration=     3
   0.00000000  0.00000000  0.00000000
Silicon                                 
           1
     2.926499    0.000000   -0.000000
     0.000000    2.926499    0.000000
     0.000000    0.000000    2.926499
   Si
     1
Direct configuration=     4
   0.00000000  0.00000000  0.00000000
