       N       E                     dE             d eps       ncg     rms          rms(c)
DAV:   1     0.244320429637E+01    0.24432E+01   -0.83270E+02    48   0.319E+02
DAV:   2    -0.124091568444E+01   -0.36841E+01   -0.36478E+01    54   0.327E+01
DAV:   3    -0.141156139441E+01   -0.17065E+00   -0.17012E+00    66   0.645E+00
DAV:   4    -0.141355526859E+01   -0.19939E-02   -0.19929E-02    78   0.861E-01
DAV:   5    -0.141355599641E+01   -0.72782E-06   -0.72797E-06    66   0.202E-02    0.569E-01
DAV:   6    -0.139178842871E+01    0.21768E-01   -0.26357E-02    48   0.651E-01    0.308E-01
DAV:   7    -0.138398376435E+01    0.78047E-02   -0.37820E-02    48   0.796E-01    0.723E-02
DAV:   8    -0.138450286795E+01   -0.51910E-03   -0.77603E-04    54   0.149E-01    0.122E-02
DAV:   9    -0.138450561320E+01   -0.27452E-05   -0.24694E-05    66   0.259E-02
   1 F= -.13845056E+01 E0= -.13711000E+01  d E =-.138451E+01
       N       E                     dE             d eps       ncg     rms          rms(c)
DAV:   1    -0.267013092279E+01   -0.12856E+01   -0.17432E+01    48   0.200E+01    0.275E+00
DAV:   2    -0.219751554557E+01    0.47262E+00   -0.53592E-01    54   0.349E+00    0.145E+00
DAV:   3    -0.201297632285E+01    0.18454E+00   -0.62889E-01    48   0.319E+00    0.142E-01
