DFT Virtual Orbitals                    
   3.90000000000000     
     0.500000    0.500000    0.000000
     0.000000    0.500000    0.500000
     0.500000    0.000000    0.500000
   Si
     1
Direct
  0.000000  0.000000  0.000000
 
   40   40   40
 -2.5499     -2.3521     -1.7797     -.89345     0.21361      1.4278      2.6305      3.7149      4.5991      5.2349    
  5.6093      5.7411      5.6736      5.4664      5.1852      4.8926      4.6234      4.3952      4.2218      4.1136    
  4.0769      4.1136      4.2218      4.3952      4.6234      4.8926      5.1852      5.4664      5.6736      5.7411    
  5.6093      5.2349      4.5991      3.7149      2.6305      1.4278     0.21361     -.89345     -1.7797     -2.3521    
 -2.3521     -1.9671     -1.2381     -.24249     0.91555      2.1192      3.2553      4.2293      4.9767      5.4677    
  5.7063      5.7245      5.5746      5.3199      5.0259      4.7428      4.4926      4.2908      4.1493      4.0766    
  4.0766      4.1493      4.2908      4.4926      4.7428      5.0259      5.3199      5.5746      5.7245      5.7063    
  5.4677      4.9767      4.2293      3.2553      2.1192     0.91555     -.24249     -1.2381     -1.9671     -2.3521    
 -1.7797     -1.2381     -.40058     0.64314      1.7843      2.9100      3.9190      4.7343      5.3111      5.6385    
  5.7357      5.6454      5.4255      5.1400      4.8480      4.5805      4.3542      4.1826      4.0756      4.0393    
  4.0756      4.1826      4.3542      4.5805      4.8480      5.1400      5.4255      5.6454      5.7357      5.6385    
  5.3111      4.7343      3.9190      2.9100      1.7843     0.64314     -.40058     -1.2381     -1.7797     -1.9671    
 -.89345     -.24249     0.64314      1.6677      2.7250      3.7127      4.5468      5.1708      5.5600      5.7207    
  5.6847      5.5021      5.2326      4.9370      4.6568      4.4105      4.2125      4.0742      4.0031      4.0031    
  4.0742      4.2125      4.4105      4.6568      4.9370      5.2326      5.5021      5.6847      5.7207      5.5600    
  5.1708      4.5468      3.7127      2.7250      1.6677     0.64314     -.24249     -.89345     -1.2381     -1.2381    
 0.21361     0.91555      1.7843      2.7250      3.6404      4.4447      5.0740      5.4928      5.6951      5.7015    
  5.5528      5.3027      5.0090      4.7203      4.4585      4.2385      4.0724      3.9692      3.9342      3.9692    
  4.0724      4.2385      4.4585      4.7203      5.0090      5.3027      5.5528      5.7015      5.6951      5.4928    
  5.0740      4.4447      3.6404      2.7250      1.7843     0.91555     0.21361     -.24249     -.40058     -.24249    
  1.4278      2.1192      2.9100      3.7127      4.4447      5.0395      5.4543      5.6731      5.7057      5.5832    
  5.3515      5.0640      4.7706      4.4976      4.2600      4.0704      3.9386      3.8711      3.8711      3.9386    
  4.0704      4.2600      4.4976      4.7706      5.0640      5.3515      5.5832      5.7057      5.6731      5.4543    
  5.0395      4.4447      3.7127      2.9100      2.1192      1.4278     0.91555     0.64314     0.64314     0.91555    
  2.6305      3.2553      3.9190      4.5468      5.0740      5.4543      5.6646      5.7054      5.5986      5.3818    
  5.1021      4.8077      4.5276      4.2770      4.0685      3.9123      3.8156      3.7829      3.8156      3.9123    
  4.0685      4.2770      4.5276      4.8077      5.1021      5.3818      5.5986      5.7054      5.6646      5.4543    
  5.0740      4.5468      3.9190      3.2553      2.6305      2.1192      1.7843      1.6677      1.7843      2.1192    
  3.7149      4.2293      4.7343      5.1708      5.4928      5.6731      5.7054      5.6032      5.3961      5.1244    
  4.8320      4.5487      4.2895      4.0667      3.8907      3.7691      3.7070      3.7070      3.7691      3.8907    
  4.0667      4.2895      4.5487      4.8320      5.1244      5.3961      5.6032      5.7054      5.6731      5.4928    
  5.1708      4.7343      4.2293      3.7149      3.2553      2.9100      2.7250      2.7250      2.9100      3.2553    
  4.5991      4.9767      5.3111      5.5600      5.6951      5.7057      5.5986      5.3961      5.1317      4.8440    
  4.5612      4.2976      4.0653      3.8743      3.7324      3.6452      3.6157      3.6452      3.7324      3.8743    
  4.0653      4.2976      4.5612      4.8440      5.1317      5.3961      5.5986      5.7057      5.6951      5.5600    
  5.3111      4.9767      4.5991      4.2293      3.9190      3.7127      3.6404      3.7127      3.9190      4.2293    
  5.2349      5.4677      5.6385      5.7207      5.7015      5.5832      5.3818      5.1244      4.8440      4.5653    
  4.3017      4.0644      3.8633      3.7061      3.5983      3.5436      3.5436      3.5983      3.7061      3.8633    
  4.0644      4.3017      4.5653      4.8440      5.1244      5.3818      5.5832      5.7015      5.7207      5.6385    
  5.4677      5.2349      4.9767      4.7343      4.5468      4.4447      4.4447      4.5468      4.7343      4.9767    
  5.6093      5.7063      5.7357      5.6847      5.5528      5.3515      5.1021      4.8320      4.5612      4.3017    
  4.0641      3.8578      3.6903      3.5670      3.4916      3.4663      3.4916      3.5670      3.6903      3.8578    
  4.0641      4.3017      4.5612      4.8320      5.1021      5.3515      5.5528      5.6847      5.7357      5.7063    
  5.6093      5.4677      5.3111      5.1708      5.0740      5.0395      5.0740      5.1708      5.3111      5.4677    
  5.7411      5.7245      5.6454      5.5021      5.3027      5.0640      4.8077      4.5487      4.2976      4.0644    
  3.8578      3.6850      3.5513      3.4603      3.4144      3.4144      3.4603      3.5513      3.6850      3.8578    
  4.0644      4.2976      4.5487      4.8077      5.0640      5.3027      5.5021      5.6454      5.7245      5.7411    
  5.7063      5.6385      5.5600      5.4928      5.4543      5.4543      5.4928      5.5600      5.6385      5.7063    
  5.6736      5.5746      5.4255      5.2326      5.0090      4.7706      4.5276      4.2895      4.0653      3.8633    
  3.6903      3.5513      3.4499      3.3883      3.3677      3.3883      3.4499      3.5513      3.6903      3.8633    
  4.0653      4.2895      4.5276      4.7706      5.0090      5.2326      5.4255      5.5746      5.6736      5.7245    
  5.7357      5.7207      5.6951      5.6731      5.6646      5.6731      5.6951      5.7207      5.7357      5.7245    
  5.4664      5.3199      5.1400      4.9370      4.7203      4.4976      4.2770      4.0667      3.8743      3.7061    
  3.5670      3.4603      3.3883      3.3521      3.3521      3.3883      3.4603      3.5670      3.7061      3.8743    
  4.0667      4.2770      4.4976      4.7203      4.9370      5.1400      5.3199      5.4664      5.5746      5.6454    
  5.6847      5.7015      5.7057      5.7054      5.7054      5.7057      5.7015      5.6847      5.6454      5.5746    
  5.1852      5.0259      4.8480      4.6568      4.4585      4.2600      4.0685      3.8907      3.7324      3.5983    
  3.4916      3.4144      3.3677      3.3521      3.3677      3.4144      3.4916      3.5983      3.7324      3.8907    
  4.0685      4.2600      4.4585      4.6568      4.8480      5.0259      5.1852      5.3199      5.4255      5.5021    
  5.5528      5.5832      5.5986      5.6032      5.5986      5.5832      5.5528      5.5021      5.4255      5.3199    
  4.8926      4.7428      4.5805      4.4105      4.2385      4.0704      3.9123      3.7691      3.6452      3.5436    
  3.4663      3.4144      3.3883      3.3883      3.4144      3.4663      3.5436      3.6452      3.7691      3.9123    
  4.0704      4.2385      4.4105      4.5805      4.7428      4.8926      5.0259      5.1400      5.2326      5.3027    
  5.3515      5.3818      5.3961      5.3961      5.3818      5.3515      5.3027      5.2326      5.1400      5.0259    
  4.6234      4.4926      4.3542      4.2125      4.0724      3.9386      3.8156      3.7070      3.6157      3.5436    
  3.4916      3.4603      3.4499      3.4603      3.4916      3.5436      3.6157      3.7070      3.8156      3.9386    
  4.0724      4.2125      4.3542      4.4926      4.6234      4.7428      4.8480      4.9370      5.0090      5.0640    
  5.1021      5.1244      5.1317      5.1244      5.1021      5.0640      5.0090      4.9370      4.8480      4.7428    
  4.3952      4.2908      4.1826      4.0742      3.9692      3.8711      3.7829      3.7070      3.6452      3.5983    
  3.5670      3.5513      3.5513      3.5670      3.5983      3.6452      3.7070      3.7829      3.8711      3.9692    
  4.0742      4.1826      4.2908      4.3952      4.4926      4.5805      4.6568      4.7203      4.7706      4.8077    
  4.8320      4.8440      4.8440      4.8320      4.8077      4.7706      4.7203      4.6568      4.5805      4.4926    
  4.2218      4.1493      4.0756      4.0031      3.9342      3.8711      3.8156      3.7691      3.7324      3.7061    
  3.6903      3.6850      3.6903      3.7061      3.7324      3.7691      3.8156      3.8711      3.9342      4.0031    
  4.0756      4.1493      4.2218      4.2908      4.3542      4.4105      4.4585      4.4976      4.5276      4.5487    
  4.5612      4.5653      4.5612      4.5487      4.5276      4.4976      4.4585      4.4105      4.3542      4.2908    
  4.1136      4.0766      4.0393      4.0031      3.9692      3.9386      3.9123      3.8907      3.8743      3.8633    
  3.8578      3.8578      3.8633      3.8743      3.8907      3.9123      3.9386      3.9692      4.0031      4.0393    
  4.0766      4.1136      4.1493      4.1826      4.2125      4.2385      4.2600      4.2770      4.2895      4.2976    
  4.3017      4.3017      4.2976      4.2895      4.2770      4.2600      4.2385      4.2125      4.1826      4.1493    
  4.0769      4.0766      4.0756      4.0742      4.0724      4.0704      4.0685      4.0667      4.0653      4.0644    
  4.0641      4.0644      4.0653      4.0667      4.0685      4.0704      4.0724      4.0742      4.0756      4.0766    
  4.0769      4.0766      4.0756      4.0742      4.0724      4.0704      4.0685      4.0667      4.0653      4.0644    
  4.0641      4.0644      4.0653      4.0667      4.0685      4.0704      4.0724      4.0742      4.0756      4.0766    
  4.1136      4.1493      4.1826      4.2125      4.2385      4.2600      4.2770      4.2895      4.2976      4.3017    
  4.3017      4.2976      4.2895      4.2770      4.2600      4.2385      4.2125      4.1826      4.1493      4.1136    
  4.0766      4.0393      4.0031      3.9692      3.9386      3.9123      3.8907      3.8743      3.8633      3.8578    
  3.8578      3.8633      3.8743      3.8907      3.9123      3.9386      3.9692      4.0031      4.0393      4.0766    
  4.2218      4.2908      4.3542      4.4105      4.4585      4.4976      4.5276      4.5487      4.5612      4.5653    
  4.5612      4.5487      4.5276      4.4976      4.4585      4.4105      4.3542      4.2908      4.2218      4.1493    
  4.0756      4.0031      3.9342      3.8711      3.8156      3.7691      3.7324      3.7061      3.6903      3.6850    
  3.6903      3.7061      3.7324      3.7691      3.8156      3.8711      3.9342      4.0031      4.0756      4.1493    
  4.3952      4.4926      4.5805      4.6568      4.7203      4.7706      4.8077      4.8320      4.8440      4.8440    
  4.8320      4.8077      4.7706      4.7203      4.6568      4.5805      4.4926      4.3952      4.2908      4.1826    
  4.0742      3.9692      3.8711      3.7829      3.7070      3.6452      3.5983      3.5670      3.5513      3.5513    
  3.5670      3.5983      3.6452      3.7070      3.7829      3.8711      3.9692      4.0742      4.1826      4.2908    
  4.6234      4.7428      4.8480      4.9370      5.0090      5.0640      5.1021      5.1244      5.1317      5.1244    
  5.1021      5.0640      5.0090      4.9370      4.8480      4.7428      4.6234      4.4926      4.3542      4.2125    
  4.0724      3.9386      3.8156      3.7070      3.6157      3.5436      3.4916      3.4603      3.4499      3.4603    
  3.4916      3.5436      3.6157      3.7070      3.8156      3.9386      4.0724      4.2125      4.3542      4.4926    
  4.8926      5.0259      5.1400      5.2326      5.3027      5.3515      5.3818      5.3961      5.3961      5.3818    
  5.3515      5.3027      5.2326      5.1400      5.0259      4.8926      4.7428      4.5805      4.4105      4.2385    
  4.0704      3.9123      3.7691      3.6452      3.5436      3.4663      3.4144      3.3883      3.3883      3.4144    
  3.4663      3.5436      3.6452      3.7691      3.9123      4.0704      4.2385      4.4105      4.5805      4.7428    
  5.1852      5.3199      5.4255      5.5021      5.5528      5.5832      5.5986      5.6032      5.5986      5.5832    
  5.5528      5.5021      5.4255      5.3199      5.1852      5.0259      4.8480      4.6568      4.4585      4.2600    
  4.0685      3.8907      3.7324      3.5983      3.4916      3.4144      3.3677      3.3521      3.3677      3.4144    
  3.4916      3.5983      3.7324      3.8907      4.0685      4.2600      4.4585      4.6568      4.8480      5.0259    
  5.4664      5.5746      5.6454      5.6847      5.7015      5.7057      5.7054      5.7054      5.7057      5.7015    
  5.6847      5.6454      5.5746      5.4664      5.3199      5.1400      4.9370      4.7203      4.4976      4.2770    
  4.0667      3.8743      3.7061      3.5670      3.4603      3.3883      3.3521      3.3521      3.3883      3.4603    
  3.5670      3.7061      3.8743      4.0667      4.2770      4.4976      4.7203      4.9370      5.1400      5.3199    
  5.6736      5.7245      5.7357      5.7207      5.6951      5.6731      5.6646      5.6731      5.6951      5.7207    
  5.7357      5.7245      5.6736      5.5746      5.4255      5.2326      5.0090      4.7706      4.5276      4.2895    
  4.0653      3.8633      3.6903      3.5513      3.4499      3.3883      3.3677      3.3883      3.4499      3.5513    
  3.6903      3.8633      4.0653      4.2895      4.5276      4.7706      5.0090      5.2326      5.4255      5.5746    
  5.7411      5.7063      5.6385      5.5600      5.4928      5.4543      5.4543      5.4928      5.5600      5.6385    
  5.7063      5.7411      5.7245      5.6454      5.5021      5.3027      5.0640      4.8077      4.5487      4.2976    
  4.0644      3.8578      3.6850      3.5513      3.4603      3.4144      3.4144      3.4603      3.5513      3.6850    
  3.8578      4.0644      4.2976      4.5487      4.8077      5.0640      5.3027      5.5021      5.6454      5.7245    
  5.6093      5.4677      5.3111      5.1708      5.0740      5.0395      5.0740      5.1708      5.3111      5.4677    
  5.6093      5.7063      5.7357      5.6847      5.5528      5.3515      5.1021      4.8320      4.5612      4.3017    
  4.0641      3.8578      3.6903      3.5670      3.4916      3.4663      3.4916      3.5670      3.6903      3.8578    
  4.0641      4.3017      4.5612      4.8320      5.1021      5.3515      5.5528      5.6847      5.7357      5.7063    
  5.2349      4.9767      4.7343      4.5468      4.4447      4.4447      4.5468      4.7343      4.9767      5.2349    
  5.4677      5.6385      5.7207      5.7015      5.5832      5.3818      5.1244      4.8440      4.5653      4.3017    
  4.0644      3.8633      3.7061      3.5983      3.5436      3.5436      3.5983      3.7061      3.8633      4.0644    
  4.3017      4.5653      4.8440      5.1244      5.3818      5.5832      5.7015      5.7207      5.6385      5.4677    
  4.5991      4.2293      3.9190      3.7127      3.6404      3.7127      3.9190      4.2293      4.5991      4.9767    
  5.3111      5.5600      5.6951      5.7057      5.5986      5.3961      5.1317      4.8440      4.5612      4.2976    
  4.0653      3.8743      3.7324      3.6452      3.6157      3.6452      3.7324      3.8743      4.0653      4.2976    
  4.5612      4.8440      5.1317      5.3961      5.5986      5.7057      5.6951      5.5600      5.3111      4.9767    
  3.7149      3.2553      2.9100      2.7250      2.7250      2.9100      3.2553      3.7149      4.2293      4.7343    
  5.1708      5.4928      5.6731      5.7054      5.6032      5.3961      5.1244      4.8320      4.5487      4.2895    
  4.0667      3.8907      3.7691      3.7070      3.7070      3.7691      3.8907      4.0667      4.2895      4.5487    
  4.8320      5.1244      5.3961      5.6032      5.7054      5.6731      5.4928      5.1708      4.7343      4.2293    
  2.6305      2.1192      1.7843      1.6677      1.7843      2.1192      2.6305      3.2553      3.9190      4.5468    
  5.0740      5.4543      5.6646      5.7054      5.5986      5.3818      5.1021      4.8077      4.5276      4.2770    
  4.0685      3.9123      3.8156      3.7829      3.8156      3.9123      4.0685      4.2770      4.5276      4.8077    
  5.1021      5.3818      5.5986      5.7054      5.6646      5.4543      5.0740      4.5468      3.9190      3.2553    
  1.4278     0.91555     0.64314     0.64314     0.91555      1.4278      2.1192      2.9100      3.7127      4.4447    
  5.0395      5.4543      5.6731      5.7057      5.5832      5.3515      5.0640      4.7706      4.4976      4.2600    
  4.0704      3.9386      3.8711      3.8711      3.9386      4.0704      4.2600      4.4976      4.7706      5.0640    
  5.3515      5.5832      5.7057      5.6731      5.4543      5.0395      4.4447      3.7127      2.9100      2.1192    
 0.21361     -.24249     -.40058     -.24249     0.21361     0.91555      1.7843      2.7250      3.6404      4.4447    
  5.0740      5.4928      5.6951      5.7015      5.5528      5.3027      5.0090      4.7203      4.4585      4.2385    
  4.0724      3.9692      3.9342      3.9692      4.0724      4.2385      4.4585      4.7203      5.0090      5.3027    
  5.5528      5.7015      5.6951      5.4928      5.0740      4.4447      3.6404      2.7250      1.7843     0.91555    
 -.89345     -1.2381     -1.2381     -.89345     -.24249     0.64314      1.6677      2.7250      3.7127      4.5468    
  5.1708      5.5600      5.7207      5.6847      5.5021      5.2326      4.9370      4.6568      4.4105      4.2125    
  4.0742      4.0031      4.0031      4.0742      4.2125      4.4105      4.6568      4.9370      5.2326      5.5021    
  5.6847      5.7207      5.5600      5.1708      4.5468      3.7127      2.7250      1.6677     0.64314     -.24249    
 -1.7797     -1.9671     -1.7797     -1.2381     -.40058     0.64314      1.7843      2.9100      3.9190      4.7343    
  5.3111      5.6385      5.7357      5.6454      5.4255      5.1400      4.8480      4.5805      4.3542      4.1826    
  4.0756      4.0393      4.0756      4.1826      4.3542      4.5805      4.8480      5.1400      5.4255      5.6454    
  5.7357      5.6385      5.3111      4.7343      3.9190      2.9100      1.7843     0.64314     -.40058     -1.2381    
 -2.3521     -2.3521     -1.9671     -1.2381     -.24249     0.91555      2.1192      3.2553      4.2293      4.9767    
  5.4677      5.7063      5.7245      5.5746      5.3199      5.0259      4.7428      4.4926      4.2908      4.1493    
  4.0766      4.0766      4.1493      4.2908      4.4926      4.7428      5.0259      5.3199      5.5746      5.7245    
  5.7063      5.4677      4.9767      4.2293      3.2553      2.1192     0.91555     -.24249     -1.2381     -1.9671    
 -2.3521     -1.9671     -1.2381     -.24249     0.91555      2.1192      3.2553      4.2293      4.9767      5.4677    
  5.7063      5.7245      5.5746      5.3199      5.0259      4.7428      4.4926      4.2908      4.1493      4.0766    
  4.0766      4.1493      4.2908      4.4926      4.7428      5.0259      5.3199      5.5746      5.7245      5.7063    
  5.4677      4.9767      4.2293      3.2553      2.1192     0.91555     -.24249     -1.2381     -1.9671     -2.3521    
 -1.9671     -1.4144     -.55970     0.50614      1.6725      2.8244      3.8587      4.6968      5.2931      5.6358    
  5.7441      5.6611      5.4451      5.1609      4.8685      4.6003      4.3733      4.2010      4.0936      4.0571    
  4.0936      4.2010      4.3733      4.6003      4.8685      5.1609      5.4451      5.6611      5.7441      5.6358    
  5.2931      4.6968      3.8587      2.8244      1.6725     0.50614     -.55970     -1.4144     -1.9671     -2.1581    
 -1.2381     -.55970     0.36409      1.4344      2.5411      3.5782      4.4583      5.1224      5.5444      5.7298    
  5.7108      5.5382      5.2730      4.9775      4.6961      4.4483      4.2489      4.1094      4.0377      4.0377    
  4.1094      4.2489      4.4483      4.6961      4.9775      5.2730      5.5382      5.7108      5.7298      5.5444    
  5.1224      4.4583      3.5782      2.5411      1.4344     0.36409     -.55970     -1.2381     -1.5970     -1.5970    
 -.24249     0.50614      1.4344      2.4423      3.4273      4.2983      4.9875      5.4565      5.6981      5.7326    
  5.6016      5.3601      5.0682      4.7780      4.5140      4.2917      4.1236      4.0190      3.9835      4.0190    
  4.1236      4.2917      4.5140      4.7780      5.0682      5.3601      5.6016      5.7326      5.6981      5.4565    
  4.9875      4.2983      3.4273      2.4423      1.4344     0.50614     -.24249     -.72834     -.89665     -.72834    
 0.91555      1.6725      2.5411      3.4273      4.2420      4.9132      5.3938      5.6656      5.7374      5.6407    
  5.4231      5.1399      4.8451      4.5693      4.3285      4.1359      4.0018      3.9329      3.9329      4.0018    
  4.1359      4.3285      4.5693      4.8451      5.1399      5.4231      5.6407      5.7374      5.6656      5.3938    
  4.9132      4.2420      3.4273      2.5411      1.6725     0.91555     0.35603     0.58826E-01 0.58826E-01 0.35603    
  2.1192      2.8244      3.5782      4.2983      4.9132      5.3712      5.6456      5.7353      5.6620      5.4645    
  5.1922      4.8968      4.6134      4.3587      4.1462      3.9865      3.8875      3.8540      3.8875      3.9865    
  4.1462      4.3587      4.6134      4.8968      5.1922      5.4645      5.6620      5.7353      5.6456      5.3712    
  4.9132      4.2983      3.5782      2.8244      2.1192      1.5443      1.1687      1.0381      1.1687      1.5443    
  3.2553      3.8587      4.4583      4.9875      5.3938      5.6456      5.7338      5.6710      5.4877      5.2260    
  4.9332      4.6463      4.3822      4.1543      3.9736      3.8486      3.7846      3.7846      3.8486      3.9736    
  4.1543      4.3822      4.6463      4.9332      5.2260      5.4877      5.6710      5.7338      5.6456      5.3938    
  4.9875      4.4583      3.8587      3.2553      2.7201      2.3200      2.1060      2.1060      2.3200      2.7201    
  4.2293      4.6968      5.1224      5.4565      5.6656      5.7353      5.6710      5.4950      5.2425      4.9549    
  4.6680      4.3988      4.1604      3.9635      3.8168      3.7264      3.6959      3.7264      3.8168      3.9635    
  4.1604      4.3988      4.6680      4.9549      5.2425      5.4950      5.6710      5.7353      5.6656      5.4565    
  5.1224      4.6968      4.2293      3.7783      3.4035      3.1556      3.0689      3.1556      3.4035      3.7783    
  4.9767      5.2931      5.5444      5.6981      5.7374      5.6620      5.4877      5.2425      4.9620      4.6787    
  4.4087      4.1643      3.9562      3.7929      3.6806      3.6235      3.6235      3.6806      3.7929      3.9562    
  4.1643      4.4087      4.6787      4.9620      5.2425      5.4877      5.6620      5.7374      5.6981      5.5444    
  5.2931      4.9767      4.6389      4.3283      4.0910      3.9625      3.9625      4.0910      4.3283      4.6389    
  5.4677      5.6358      5.7298      5.7326      5.6407      5.4645      5.2260      4.9549      4.6787      4.4120    
  4.1663      3.9519      3.7769      3.6477      3.5686      3.5419      3.5686      3.6477      3.7769      3.9519    
  4.1663      4.4120      4.6787      4.9549      5.2260      5.4645      5.6407      5.7326      5.7298      5.6358    
  5.4677      5.2546      5.0327      4.8399      4.7091      4.6629      4.7091      4.8399      5.0327      5.2546    
  5.7063      5.7441      5.7108      5.6016      5.4231      5.1922      4.9332      4.6680      4.4087      4.1663    
  3.9504      3.7689      3.6280      3.5318      3.4831      3.4831      3.5318      3.6280      3.7689      3.9504    
  4.1663      4.4087      4.6680      4.9332      5.1922      5.4231      5.6016      5.7108      5.7441      5.7063    
  5.6131      5.4885      5.3606      5.2569      5.1991      5.1991      5.2569      5.3606      5.4885      5.6131    
  5.7245      5.6611      5.5382      5.3601      5.1399      4.8968      4.6463      4.3988      4.1643      3.9519    
  3.7689      3.6214      3.5134      3.4477      3.4256      3.4477      3.5134      3.6214      3.7689      3.9519    
  4.1643      4.3988      4.6463      4.8968      5.1399      5.3601      5.5382      5.6611      5.7245      5.7332    
  5.7002      5.6438      5.5843      5.5400      5.5238      5.5400      5.5843      5.6438      5.7002      5.7332    
  5.5746      5.4451      5.2730      5.0682      4.8451      4.6134      4.3822      4.1604      3.9562      3.7769    
  3.6280      3.5134      3.4359      3.3967      3.3967      3.4359      3.5134      3.6280      3.7769      3.9562    
  4.1604      4.3822      4.6134      4.8451      5.0682      5.2730      5.4451      5.5746      5.6582      5.6997    
  5.7088      5.6983      5.6819      5.6705      5.6705      5.6819      5.6983      5.7088      5.6997      5.6582    
  5.3199      5.1609      4.9775      4.7780      4.5693      4.3587      4.1543      3.9635      3.7929      3.6477    
  3.5318      3.4477      3.3967      3.3797      3.3967      3.4477      3.5318      3.6477      3.7929      3.9635    
  4.1543      4.3587      4.5693      4.7780      4.9775      5.1609      5.3199      5.4467      5.5385      5.5977    
  5.6306      5.6454      5.6504      5.6513      5.6504      5.6454      5.6306      5.5977      5.5385      5.4467    
  5.0259      4.8685      4.6961      4.5140      4.3285      4.1462      3.9736      3.8168      3.6806      3.5686    
  3.4831      3.4256      3.3967      3.3967      3.4256      3.4831      3.5686      3.6806      3.8168      3.9736    
  4.1462      4.3285      4.5140      4.6961      4.8685      5.0259      5.1641      5.2787      5.3669      5.4295    
  5.4703      5.4937      5.5042      5.5042      5.4937      5.4703      5.4295      5.3669      5.2787      5.1641    
  4.7428      4.6003      4.4483      4.2917      4.1359      3.9865      3.8486      3.7264      3.6235      3.5419    
  3.4831      3.4477      3.4359      3.4477      3.4831      3.5419      3.6235      3.7264      3.8486      3.9865    
  4.1359      4.2917      4.4483      4.6003      4.7428      4.8718      4.9841      5.0781      5.1527      5.2076    
  5.2444      5.2653      5.2720      5.2653      5.2444      5.2076      5.1527      5.0781      4.9841      4.8718    
  4.4926      4.3733      4.2489      4.1236      4.0018      3.8875      3.7846      3.6959      3.6235      3.5686    
  3.5318      3.5134      3.5134      3.5318      3.5686      3.6235      3.6959      3.7846      3.8875      4.0018    
  4.1236      4.2489      4.3733      4.4926      4.6033      4.7022      4.7873      4.8575      4.9125      4.9526    
  4.9787      4.9915      4.9915      4.9787      4.9526      4.9125      4.8575      4.7873      4.7022      4.6033    
  4.2908      4.2010      4.1094      4.0190      3.9329      3.8540      3.7846      3.7264      3.6806      3.6477    
  3.6280      3.6214      3.6280      3.6477      3.6806      3.7264      3.7846      3.8540      3.9329      4.0190    
  4.1094      4.2010      4.2908      4.3757      4.4534      4.5218      4.5797      4.6264      4.6620      4.6868    
  4.7014      4.7062      4.7014      4.6868      4.6620      4.6264      4.5797      4.5218      4.4534      4.3757    
  4.1493      4.0936      4.0377      3.9835      3.9329      3.8875      3.8486      3.8168      3.7929      3.7769    
  3.7689      3.7689      3.7769      3.7929      3.8168      3.8486      3.8875      3.9329      3.9835      4.0377    
  4.0936      4.1493      4.2030      4.2529      4.2977      4.3364      4.3683      4.3933      4.4116      4.4234    
  4.4293      4.4293      4.4234      4.4116      4.3933      4.3683      4.3364      4.2977      4.2529      4.2030    
  4.0766      4.0571      4.0377      4.0190      4.0018      3.9865      3.9736      3.9635      3.9562      3.9519    
  3.9504      3.9519      3.9562      3.9635      3.9736      3.9865      4.0018      4.0190      4.0377      4.0571    
  4.0766      4.0953      4.1126      4.1281      4.1413      4.1522      4.1606      4.1667      4.1708      4.1731    
  4.1739      4.1731      4.1708      4.1667      4.1606      4.1522      4.1413      4.1281      4.1126      4.0953    
  4.0766      4.0936      4.1094      4.1236      4.1359      4.1462      4.1543      4.1604      4.1643      4.1663    
  4.1663      4.1643      4.1604      4.1543      4.1462      4.1359      4.1236      4.1094      4.0936      4.0766    
  4.0587      4.0404      4.0225      4.0053      3.9895      3.9755      3.9639      3.9549      3.9487      3.9456    
  3.9456      3.9487      3.9549      3.9639      3.9755      3.9895      4.0053      4.0225      4.0404      4.0587    
  4.1493      4.2010      4.2489      4.2917      4.3285      4.3587      4.3822      4.3988      4.4087      4.4120    