DFT Virtual Orbitals                    
   3.90000000000000     
     0.500000    0.500000    0.000000
     0.000000    0.500000    0.500000
     0.500000    0.000000    0.500000
   Si
     1
Direct
  0.000000  0.000000  0.000000
 
   40   40   40
 -.25498858474E+01 -.23521006167E+01 -.17797379699E+01 -.89345126071E+00 0.21360547319E+00
 0.14277758307E+01 0.26305240039E+01 0.37148695526E+01 0.45990818372E+01 0.52348825529E+01
 0.56092893033E+01 0.57410651432E+01 0.56736490596E+01 0.54663714318E+01 0.51852444621E+01
 0.48925816807E+01 0.46234388375E+01 0.43951968737E+01 0.42218343759E+01 0.41136382682E+01
 0.40768730448E+01 0.41136382673E+01 0.42218343744E+01 0.43951968717E+01 0.46234388353E+01
 0.48925816787E+01 0.51852444605E+01 0.54663714304E+01 0.56736490584E+01 0.57410651420E+01
 0.56092893020E+01 0.52348825518E+01 0.45990818366E+01 0.37148695533E+01 0.26305240063E+01
 0.14277758351E+01 0.21360547910E+00 -.89345125435E+00 -.17797379645E+01 -.23521006136E+01
 -.23521006188E+01 -.19670657376E+01 -.12380607073E+01 -.24248616881E+00 0.91555007629E+00
 0.21192187244E+01 0.32552589414E+01 0.42292613487E+01 0.49766746182E+01 0.54677096309E+01
 0.57062751326E+01 0.57244746226E+01 0.55745618206E+01 0.53198911560E+01 0.50258730177E+01
 0.47428390811E+01 0.44926451266E+01 0.42907884253E+01 0.41493490878E+01 0.40765537028E+01
 0.40765537015E+01 0.41493490844E+01 0.42907884211E+01 0.44926451230E+01 0.47428390791E+01
 0.50258730172E+01 0.53198911560E+01 0.55745618200E+01 0.57244746208E+01 0.57062751299E+01
 0.54677096281E+01 0.49766746165E+01 0.42292613488E+01 0.32552589434E+01 0.21192187276E+01
 0.91555007973E+00 -.24248616599E+00 -.12380607054E+01 -.19670657367E+01 -.23521006186E+01
 -.17797379760E+01 -.12380607090E+01 -.40057737310E+00 0.64313578218E+00 0.17842963399E+01
 0.29100207662E+01 0.39189758341E+01 0.47342758217E+01 0.53111316090E+01 0.56385017890E+01
 0.57356569563E+01 0.56453872160E+01 0.54255270832E+01 0.51400279636E+01 0.48479868159E+01
 0.45804959266E+01 0.43542035103E+01 0.41826094191E+01 0.40756303702E+01 0.40392973819E+01
 0.40756303675E+01 0.41826094147E+01 0.43542035058E+01 0.45804959233E+01 0.48479868143E+01
 0.51400279632E+01 0.54255270829E+01 0.56453872150E+01 0.57356569543E+01 0.56385017866E+01
 0.53111316071E+01 0.47342758212E+01 0.39189758352E+01 0.29100207684E+01 0.17842963422E+01
 0.64313578384E+00 -.40057737242E+00 -.12380607091E+01 -.17797379762E+01 -.19670657458E+01
 -.89345126538E+00 -.24248616434E+00 0.64313579051E+00 0.16677460642E+01 0.27249707033E+01
 0.37126979963E+01 0.45467870019E+01 0.51707595023E+01 0.55600102909E+01 0.57207086752E+01
 0.56847058800E+01 0.55020692782E+01 0.52326028201E+01 0.49370150727E+01 0.46567985341E+01
 0.44104776338E+01 0.42125317647E+01 0.40742013880E+01 0.40031154409E+01 0.40031154399E+01
 0.40742013855E+01 0.42125317611E+01 0.44104776301E+01 0.46567985308E+01 0.49370150700E+01
 0.52326028183E+01 0.55020692771E+01 0.56847058794E+01 0.57207086750E+01 0.55600102912E+01
 0.51707595031E+01 0.45467870033E+01 0.37126979982E+01 0.27249707056E+01 0.16677460667E+01
 0.64313579289E+00 -.24248616234E+00 -.89345126405E+00 -.12380607206E+01 -.12380607211E+01
 0.21360548244E+00 0.91555010061E+00 0.17842963703E+01 0.27249707252E+01 0.36404131194E+01
 0.44447000359E+01 0.50739851656E+01 0.54927727264E+01 0.56951210761E+01 0.57015257473E+01
 0.55528484444E+01 0.53026524244E+01 0.50090343188E+01 0.47203438502E+01 0.44584864638E+01
 0.42384619251E+01 0.40724138194E+01 0.39692065939E+01 0.39342065273E+01 0.39692065927E+01
 0.40724138172E+01 0.42384619219E+01 0.44584864599E+01 0.47203438461E+01 0.50090343152E+01
 0.53026524220E+01 0.55528484436E+01 0.57015257482E+01 0.56951210783E+01 0.54927727297E+01
 0.50739851695E+01 0.44447000403E+01 0.36404131243E+01 0.27249707307E+01 0.17842963762E+01
 0.91555010642E+00 0.21360548717E+00 -.24248617450E+00 -.40057738958E+00 -.24248617717E+00
 0.14277758688E+01 0.21192187815E+01 0.29100208287E+01 0.37126980474E+01 0.44447000629E+01
 0.50395142632E+01 0.54543052527E+01 0.56730981267E+01 0.57056784239E+01 0.55831724673E+01
 0.53515215407E+01 0.50639594053E+01 0.47706274332E+01 0.44976006625E+01 0.42599997000E+01
 0.40704446631E+01 0.39386331684E+01 0.38710926790E+01 0.38710926781E+01 0.39386331660E+01
 0.40704446595E+01 0.42599996959E+01 0.44976006584E+01 0.47706274297E+01 0.50639594025E+01
 0.53515215390E+01 0.55831724669E+01 0.57056784254E+01 0.56730981302E+01 0.54543052587E+01
 0.50395142716E+01 0.44447000733E+01 0.37126980591E+01 0.29100208406E+01 0.21192187925E+01
 0.14277758778E+01 0.91555009520E+00 0.64313577681E+00 0.64313577478E+00 0.91555008935E+00
 0.26305240806E+01 0.32552590357E+01 0.39189759282E+01 0.45467870781E+01 0.50739852129E+01
 0.54543052712E+01 0.56645700369E+01 0.57054127348E+01 0.55985869493E+01 0.53818062606E+01
 0.51021369850E+01 0.48077130804E+01 0.45276370759E+01 0.42769901005E+01 0.40684830837E+01
 0.39122520000E+01 0.38155969536E+01 0.37828937774E+01 0.38155969509E+01 0.39122519955E+01
 0.40684830787E+01 0.42769900961E+01 0.45276370725E+01 0.48077130779E+01 0.51021369828E+01
 0.53818062587E+01 0.55985869483E+01 0.57054127361E+01 0.56645700421E+01 0.54543052812E+01
 0.50739852277E+01 0.45467870962E+01 0.39189759475E+01 0.32552590538E+01 0.26305240956E+01
 0.21192187832E+01 0.17842963630E+01 0.16677460611E+01 0.17842963576E+01 0.21192187727E+01
 0.37148696657E+01 0.42292614711E+01 0.47342759335E+01 0.51707595870E+01 0.54927727770E+01
 0.56730981469E+01 0.57054127371E+01 0.56032185951E+01 0.53961388788E+01 0.51244228937E+01
 0.48320090707E+01 0.45487407731E+01 0.42894791470E+01 0.40667153185E+01 0.38906806553E+01
 0.37690805341E+01 0.37070165202E+01 0.37070165189E+01 0.37690805306E+01 0.38906806506E+01
 0.40667153137E+01 0.42894791427E+01 0.45487407693E+01 0.48320090671E+01 0.51244228900E+01
 0.53961388756E+01 0.56032185938E+01 0.57054127396E+01 0.56730981549E+01 0.54927727913E+01
 0.51707596070E+01 0.47342759572E+01 0.42292614957E+01 0.37148696881E+01 0.32552590468E+01
 0.29100208308E+01 0.27249707287E+01 0.27249707248E+01 0.29100208195E+01 0.32552590290E+01
 0.45990819695E+01 0.49766747463E+01 0.53111317137E+01 0.55600103602E+01 0.56951211084E+01
 0.57056784276E+01 0.55985869387E+01 0.53961388686E+01 0.51317262184E+01 0.48439994484E+01
 0.45612145104E+01 0.42976354046E+01 0.40653107484E+01 0.38743058630E+01 0.37324260647E+01
 0.36451524131E+01 0.36157078041E+01 0.36451524120E+01 0.37324260625E+01 0.38743058596E+01
 0.40653107435E+01 0.42976353985E+01 0.45612145036E+01 0.48439994415E+01 0.51317262125E+01
 0.53961388649E+01 0.55985869385E+01 0.57056784320E+01 0.56951211182E+01 0.55600103760E+01
 0.53111317351E+01 0.49766747719E+01 0.45990819967E+01 0.42292614908E+01 0.39189759410E+01
 0.37126980598E+01 0.36404131445E+01 0.37126980490E+01 0.39189759214E+01 0.42292614655E+01
 0.52348826764E+01 0.54677097349E+01 0.56385018590E+01 0.57207087060E+01 0.57015257438E+01
 0.55831724420E+01 0.53818062287E+01 0.51244228679E+01 0.48439994354E+01 0.45653356581E+01
 0.43016513957E+01 0.40644071106E+01 0.38633286490E+01 0.37061025123E+01 0.35983146121E+01
 0.35435508488E+01 0.35435508492E+01 0.35983146126E+01 0.37061025115E+01 0.38633286457E+01
 0.40644071041E+01 0.43016513865E+01 0.45653356477E+01 0.48439994258E+01 0.51244228606E+01
 0.53818062246E+01 0.55831724415E+01 0.57015257473E+01 0.57207087142E+01 0.56385018729E+01
 0.54677097550E+01 0.52348827018E+01 0.49766747688E+01 0.47342759533E+01 0.45467870982E+01
 0.44447000915E+01 0.44447000850E+01 0.45467870802E+01 0.47342759278E+01 0.49766747411E+01
 0.56092893871E+01 0.57062751851E+01 0.57356569705E+01 0.56847058585E+01 0.55528483980E+01
 0.53515214843E+01 0.51021369327E+01 0.48320090318E+01 0.45612144881E+01 0.43016513874E+01
 0.40640952754E+01 0.38578293103E+01 0.36902895223E+01 0.35669830854E+01 0.34916072038E+01
 0.34662569951E+01 0.34916072045E+01 0.35669830858E+01 0.36902895208E+01 0.38578293055E+01
 0.40640952672E+01 0.43016513766E+01 0.45612144763E+01 0.48320090206E+01 0.51021369231E+01
 0.53515214769E+01 0.55528483935E+01 0.56847058577E+01 0.57356569749E+01 0.57062751961E+01
 0.56092894051E+01 0.54677097533E+01 0.53111317330E+01 0.51707596091E+01 0.50739852418E+01
 0.50395143061E+01 0.50739852298E+01 0.51707595883E+01 0.53111317083E+01 0.54677097300E+01
 0.57410651645E+01 0.57244746080E+01 0.56453871673E+01 0.55020692051E+01 0.53026523410E+01
 0.50639593263E+01 0.48077130166E+01 0.45487407294E+01 0.42976353801E+01 0.40644071003E+01
 0.38578293078E+01 0.36850195892E+01 0.35513089642E+01 0.34603493327E+01 0.34143550393E+01
 0.34143550393E+01 0.34603493324E+01 0.35513089629E+01 0.36850195861E+01 0.38578293024E+01
 0.40644070924E+01 0.42976353698E+01 0.45487407170E+01 0.48077130029E+01 0.50639593121E+01
 0.53026523277E+01 0.55020691943E+01 0.56453871612E+01 0.57244746083E+01 0.57410651720E+01
 0.57062751953E+01 0.56385018719E+01 0.55600103775E+01 0.54927728005E+01 0.54543053040E+01
 0.54543052994E+01 0.54927727878E+01 0.55600103602E+01 0.56385018542E+01 0.57062751814E+01
 0.56736490108E+01 0.55745617407E+01 0.54255269813E+01 0.52326027100E+01 0.50090342149E+01
 0.47706273472E+01 0.45276370136E+01 0.42894791085E+01 0.40653107290E+01 0.38633286421E+01
 0.36902895213E+01 0.35513089647E+01 0.34499224741E+01 0.33883258710E+01 0.33676752449E+01
 0.33883258705E+01 0.34499224730E+01 0.35513089628E+01 0.36902895182E+01 0.38633286372E+01
 0.40653107217E+01 0.42894790981E+01 0.45276369997E+01 0.47706273301E+01 0.50090341958E+01
 0.52326026909E+01 0.54255269648E+01 0.55745617291E+01 0.56736490058E+01 0.57244746079E+01
 0.57356569743E+01 0.57207087148E+01 0.56951211228E+01 0.56730981669E+01 0.56645700639E+01
 0.56730981614E+01 0.56951211136E+01 0.57207087049E+01 0.57356569671E+01 0.57244746061E+01
 0.54663713236E+01 0.53198910290E+01 0.51400278311E+01 0.49370149490E+01 0.47203437470E+01
 0.44976005862E+01 0.42769900516E+01 0.40667152927E+01 0.38743058531E+01 0.37061025110E+01
 0.35669830871E+01 0.34603493341E+01 0.33883258713E+01 0.33520699252E+01 0.33520699254E+01
 0.33883258718E+01 0.34603493343E+01 0.35669830863E+01 0.37061025085E+01 0.38743058483E+01
 0.40667152849E+01 0.42769900403E+01 0.44976005711E+01 0.47203437281E+01 0.49370149271E+01
 0.51400278079E+01 0.53198910070E+01 0.54663713056E+01 0.55745617287E+01 0.56453871605E+01
 0.56847058573E+01 0.57015257481E+01 0.57056784354E+01 0.57054127462E+01 0.57054127446E+01
 0.57056784314E+01 0.57015257443E+01 0.56847058567E+01 0.56453871657E+01 0.55745617406E+01
 0.51852443190E+01 0.50258728718E+01 0.48479866810E+01 0.46567984215E+01 0.44584863800E+01
 0.42599996458E+01 0.40684830549E+01 0.38906806447E+01 0.37324260644E+01 0.35983146157E+01
 0.34916072069E+01 0.34143550403E+01 0.33676752441E+01 0.33520699241E+01 0.33676752458E+01
 0.34143550428E+01 0.34916072089E+01 0.35983146159E+01 0.37324260622E+01 0.38906806398E+01
 0.40684830472E+01 0.42599996350E+01 0.44584863654E+01 0.46567984024E+01 0.48479866575E+01
 0.50258728452E+01 0.51852442922E+01 0.53198910061E+01 0.54255269633E+01 0.55020691925E+01
 0.55528483913E+01 0.55831724389E+01 0.55985869346E+01 0.56032185866E+01 0.55985869335E+01
 0.55831724386E+01 0.55528483950E+01 0.55020692027E+01 0.54255269809E+01 0.53198910298E+01
 0.48925815333E+01 0.47428389458E+01 0.45804958141E+01 0.44104775504E+01 0.42384618716E+01
 0.40704446355E+01 0.39122519912E+01 0.37690805361E+01 0.36451524189E+01 0.35435508537E+01
 0.34662569967E+01 0.34143550376E+01 0.33883258667E+01 0.33883258677E+01 0.34143550401E+01
 0.34662569998E+01 0.35435508562E+01 0.36451524200E+01 0.37690805354E+01 0.39122519883E+01
 0.40704446300E+01 0.42384618624E+01 0.44104775363E+01 0.45804957943E+01 0.47428389207E+01
 0.48925815048E+01 0.50258728436E+01 0.51400278052E+01 0.52326026873E+01 0.53026523230E+01
 0.53515214703E+01 0.53818062145E+01 0.53961388487E+01 0.53961388492E+01 0.53818062170E+01
 0.53515214767E+01 0.53026523353E+01 0.52326027066E+01 0.51400278305E+01 0.50258728722E+01
 0.46234387131E+01 0.44926450240E+01 0.43542034352E+01 0.42125317177E+01 0.40724137968E+01
 0.39386331634E+01 0.38155969584E+01 0.37070165280E+01 0.36157078099E+01 0.35435508508E+01
 0.34916072015E+01 0.34603493259E+01 0.34499224648E+01 0.34603493263E+01 0.34916072027E+01
 0.35435508529E+01 0.36157078131E+01 0.37070165318E+01 0.38155969616E+01 0.39386331644E+01
 0.40724137937E+01 0.42125317091E+01 0.43542034204E+01 0.44926450036E+01 0.46234386886E+01
 0.47428389183E+01 0.48479866532E+01 0.49370149214E+01 0.50090341887E+01 0.50639593026E+01
 0.51021369096E+01 0.51244228405E+01 0.51317261820E+01 0.51244228446E+01 0.51021369183E+01
 0.50639593160E+01 0.50090342070E+01 0.49370149441E+01 0.48479866787E+01 0.47428389445E+01
 0.43951967891E+01 0.42907883649E+01 0.41826093831E+01 0.40742013729E+01 0.39692065932E+01
 0.38710926858E+01 0.37828937853E+01 0.37070165236E+01 0.36451524115E+01 0.35983146067E+01
 0.35669830758E+01 0.35513089504E+01 0.35513089497E+01 0.35669830743E+01 0.35983146062E+01
 0.36451524135E+01 0.37070165287E+01 0.37828937924E+01 0.38710926924E+01 0.39692065966E+01
 0.40742013706E+01 0.41826093744E+01 0.42907883505E+01 0.43951967707E+01 0.44926450005E+01
 0.45804957887E+01 0.46567983947E+01 0.47203437185E+01 0.47706273183E+01 0.48077129875E+01
 0.48320089995E+01 0.48439993958E+01 0.48439993989E+01 0.48320090084E+01 0.48077130010E+01
 0.47706273350E+01 0.47203437374E+01 0.46567984149E+01 0.45804958094E+01 0.44926450209E+01
 0.42218343336E+01 0.41493490649E+01 0.40756303629E+01 0.40031154433E+01 0.39342065334E+01
 0.38710926825E+01 0.38155969503E+01 0.37690805239E+01 0.37324260504E+01 0.37061024954E+01
 0.36902895026E+01 0.36850195676E+01 0.36902895008E+01 0.37061024932E+01 0.37324260499E+01
 0.37690805267E+01 0.38155969564E+01 0.38710926903E+01 0.39342065403E+01 0.40031154468E+01
 0.40756303612E+01 0.41493490580E+01 0.42218343226E+01 0.42907883472E+01 0.43542034141E+01
 0.44104775273E+01 0.44584863541E+01 0.44976005575E+01 0.45276369832E+01 0.45487406962E+01
 0.45612144488E+01 0.45653356109E+01 0.45612144547E+01 0.45487407068E+01 0.45276369969E+01
 0.44976005726E+01 0.44584863696E+01 0.44104775427E+01 0.43542034289E+01 0.42907883608E+01
 0.41136382574E+01 0.40765537014E+01 0.40392973843E+01 0.40031154409E+01 0.39692065882E+01
 0.39386331543E+01 0.39122519769E+01 0.38906806270E+01 0.38743058334E+01 0.38633286191E+01
 0.38578292802E+01 0.38578292793E+01 0.38633286170E+01 0.38743058313E+01 0.38906806264E+01
 0.39122519787E+01 0.39386331584E+01 0.39692065936E+01 0.40031154459E+01 0.40392973874E+01
 0.40765537015E+01 0.41136382541E+01 0.41493490551E+01 0.41826093684E+01 0.42125317000E+01
 0.42384618505E+01 0.42599996207E+01 0.42769900235E+01 0.42894790780E+01 0.42976353452E+01
 0.43016513459E+01 0.43016513479E+01 0.42976353509E+01 0.42894790867E+01 0.42769900340E+01
 0.42599996320E+01 0.42384618617E+01 0.42125317103E+01 0.41826093771E+01 0.41493490614E+01
 0.40768730454E+01 0.40765536993E+01 0.40756303580E+01 0.40742013661E+01 0.40724137878E+01
 0.40704446225E+01 0.40684830375E+01 0.40667152720E+01 0.40653107044E+01 0.40644070692E+01
 0.40640952373E+01 0.40644070672E+01 0.40653107009E+01 0.40667152682E+01 0.40684830345E+01
 0.40704446211E+01 0.40724137884E+01 0.40742013682E+01 0.40756303608E+01 0.40765537018E+01
 0.40768730466E+01 0.40765536994E+01 0.40756303564E+01 0.40742013629E+01 0.40724137830E+01
 0.40704446166E+01 0.40684830313E+01 0.40667152664E+01 0.40653107001E+01 0.40644070670E+01
 0.40640952373E+01 0.40644070692E+01 0.40653107043E+01 0.40667152720E+01 0.40684830379E+01
 0.40704446233E+01 0.40724137891E+01 0.40742013675E+01 0.40756303592E+01 0.40765537001E+01
 0.41136382561E+01 0.41493490596E+01 0.41826093750E+01 0.42125317084E+01 0.42384618603E+01
 0.42599996311E+01 0.42769900336E+01 0.42894790866E+01 0.42976353510E+01 0.43016513479E+01
 0.43016513459E+01 0.42976353456E+01 0.42894790793E+01 0.42769900260E+01 0.42599996246E+01
 0.42384618557E+01 0.42125317057E+01 0.41826093738E+01 0.41493490591E+01 0.41136382560E+01
 0.40765537008E+01 0.40392973846E+01 0.40031154415E+01 0.39692065887E+01 0.39386331538E+01
 0.39122519751E+01 0.38906806241E+01 0.38743058301E+01 0.38633286166E+01 0.38578292792E+01
 0.38578292801E+01 0.38633286190E+01 0.38743058332E+01 0.38906806270E+01 0.39122519773E+01
 0.39386331549E+01 0.39692065890E+01 0.40031154415E+01 0.40392973845E+01 0.40765537008E+01
 0.42218343312E+01 0.42907883581E+01 0.43542034264E+01 0.44104775406E+01 0.44584863682E+01
 0.44976005719E+01 0.45276369967E+01 0.45487407068E+01 0.45612144547E+01 0.45653356108E+01
 0.45612144490E+01 0.45487406969E+01 0.45276369849E+01 0.44976005605E+01 0.44584863585E+01
 0.44104775327E+01 0.43542034197E+01 0.42907883521E+01 0.42218343259E+01 0.41493490592E+01
 0.40756303601E+01 0.40031154439E+01 0.39342065364E+01 0.38710926862E+01 0.38155969529E+01
 0.37690805242E+01 0.37324260484E+01 0.37061024926E+01 0.36902895006E+01 0.36850195676E+01
 0.36902895025E+01 0.37061024952E+01 0.37324260502E+01 0.37690805239E+01 0.38155969505E+01
 0.38710926827E+01 0.39342065335E+01 0.40031154430E+01 0.40756303619E+01 0.41493490631E+01
 0.43951967861E+01 0.44926450179E+01 0.45804958069E+01 0.46567984130E+01 0.47203437363E+01
 0.47706273346E+01 0.48077130009E+01 0.48320090084E+01 0.48439993989E+01 0.48439993958E+01
 0.48320089997E+01 0.48077129884E+01 0.47706273203E+01 0.47203437218E+01 0.46567983992E+01
 0.45804957938E+01 0.44926450056E+01 0.43951967748E+01 0.42907883530E+01 0.41826093750E+01
 0.40742013694E+01 0.39692065940E+01 0.38710926893E+01 0.37828937894E+01 0.37070165263E+01
 0.36451524120E+01 0.35983146055E+01 0.35669830741E+01 0.35513089496E+01 0.35513089503E+01
 0.35669830755E+01 0.35983146064E+01 0.36451524113E+01 0.37070165235E+01 0.37828937852E+01
 0.38710926856E+01 0.39692065926E+01 0.40742013717E+01 0.41826093812E+01 0.42907883623E+01
 0.46234387100E+01 0.47428389417E+01 0.48479866765E+01 0.49370149427E+01 0.50090342063E+01
 0.50639593159E+01 0.51021369183E+01 0.51244228447E+01 0.51317261820E+01 0.51244228405E+01
 0.51021369100E+01 0.50639593037E+01 0.50090341908E+01 0.49370149247E+01 0.48479866573E+01
 0.47428389228E+01 0.46234386928E+01 0.44926450068E+01 0.43542034222E+01 0.42125317092E+01
 0.40724137925E+01 0.39386331624E+01 0.38155969594E+01 0.37070165298E+01 0.36157078118E+01
 0.35435508522E+01 0.34916072024E+01 0.34603493263E+01 0.34499224647E+01 0.34603493257E+01
 0.34916072012E+01 0.35435508504E+01 0.36157078096E+01 0.37070165277E+01 0.38155969581E+01
 0.39386331627E+01 0.40724137956E+01 0.42125317158E+01 0.43542034326E+01 0.44926450210E+01
 0.48925815305E+01 0.50258728699E+01 0.51400278289E+01 0.52326027056E+01 0.53026523349E+01
 0.53515214767E+01 0.53818062171E+01 0.53961388493E+01 0.53961388487E+01 0.53818062146E+01
 0.53515214708E+01 0.53026523241E+01 0.52326026893E+01 0.51400278081E+01 0.50258728471E+01
 0.48925815085E+01 0.47428389239E+01 0.45804957966E+01 0.44104775374E+01 0.42384618624E+01
 0.40704446291E+01 0.39122519870E+01 0.37690805341E+01 0.36451524190E+01 0.35435508557E+01
 0.34662569996E+01 0.34143550401E+01 0.33883258676E+01 0.33883258665E+01 0.34143550373E+01
 0.34662569963E+01 0.35435508533E+01 0.36451524185E+01 0.37690805357E+01 0.39122519905E+01
 0.40704446344E+01 0.42384618699E+01 0.44104775481E+01 0.45804958113E+01 0.47428389429E+01
 0.51852443169E+01 0.53198910281E+01 0.54255269798E+01 0.55020692021E+01 0.55528483948E+01
 0.55831724387E+01 0.55985869336E+01 0.56032185867E+01 0.55985869346E+01 0.55831724390E+01
 0.55528483918E+01 0.55020691935E+01 0.54255269650E+01 0.53198910084E+01 0.51852442948E+01
 0.50258728479E+01 0.48479866597E+01 0.46567984040E+01 0.44584863661E+01 0.42599996350E+01
 0.40684830467E+01 0.38906806391E+01 0.37324260615E+01 0.35983146155E+01 0.34916072087E+01
 0.34143550428E+01 0.33676752457E+01 0.33520699240E+01 0.33676752438E+01 0.34143550399E+01
 0.34916072065E+01 0.35983146152E+01 0.37324260640E+01 0.38906806441E+01 0.40684830540E+01
 0.42599996444E+01 0.44584863782E+01 0.46567984193E+01 0.48479866785E+01 0.50258728694E+01
 0.54663713220E+01 0.55745617394E+01 0.56453871649E+01 0.56847058563E+01 0.57015257441E+01
 0.57056784314E+01 0.57054127446E+01 0.57054127462E+01 0.57056784354E+01 0.57015257483E+01
 0.56847058578E+01 0.56453871614E+01 0.55745617300E+01 0.54663713073E+01 0.53198910090E+01
 0.51400278098E+01 0.49370149287E+01 0.47203437291E+01 0.44976005716E+01 0.42769900405E+01
 0.40667152847E+01 0.38743058480E+01 0.37061025083E+01 0.35669830863E+01 0.34603493343E+01
 0.33883258718E+01 0.33520699253E+01 0.33520699249E+01 0.33883258710E+01 0.34603493337E+01
 0.35669830867E+01 0.37061025106E+01 0.38743058526E+01 0.40667152919E+01 0.42769900506E+01
 0.44976005848E+01 0.47203437453E+01 0.49370149471E+01 0.51400278291E+01 0.53198910271E+01
 0.56736490096E+01 0.57244746051E+01 0.57356569664E+01 0.57207087044E+01 0.56951211132E+01
 0.56730981612E+01 0.56645700638E+01 0.56730981669E+01 0.56951211229E+01 0.57207087151E+01
 0.57356569748E+01 0.57244746086E+01 0.56736490068E+01 0.55745617304E+01 0.54255269661E+01
 0.52326026921E+01 0.50090341969E+01 0.47706273309E+01 0.45276370001E+01 0.42894790983E+01
 0.40653107218E+01 0.38633286372E+01 0.36902895182E+01 0.35513089628E+01 0.34499224729E+01
 0.33883258704E+01 0.33676752447E+01 0.33883258707E+01 0.34499224737E+01 0.35513089642E+01
 0.36902895209E+01 0.38633286416E+01 0.40653107284E+01 0.42894791077E+01 0.45276370126E+01
 0.47706273460E+01 0.50090342135E+01 0.52326027084E+01 0.54255269798E+01 0.55745617393E+01
 0.57410651633E+01 0.57062751803E+01 0.56385018534E+01 0.55600103596E+01 0.54927727874E+01
 0.54543052992E+01 0.54543053040E+01 0.54927728006E+01 0.55600103778E+01 0.56385018722E+01
 0.57062751958E+01 0.57410651727E+01 0.57244746091E+01 0.56453871621E+01 0.55020691952E+01
 0.53026523285E+01 0.50639593128E+01 0.48077130034E+01 0.45487407174E+01 0.42976353700E+01
 0.40644070925E+01 0.38578293025E+01 0.36850195862E+01 0.35513089628E+01 0.34603493323E+01
 0.34143550391E+01 0.34143550391E+01 0.34603493324E+01 0.35513089638E+01 0.36850195888E+01
 0.38578293073E+01 0.40644070998E+01 0.42976353795E+01 0.45487407287E+01 0.48077130157E+01
 0.50639593253E+01 0.53026523399E+01 0.55020692038E+01 0.56453871661E+01 0.57244746068E+01
 0.56092893859E+01 0.54677097289E+01 0.53111317074E+01 0.51707595877E+01 0.50739852295E+01
 0.50395143061E+01 0.50739852419E+01 0.51707596094E+01 0.53111317334E+01 0.54677097538E+01
 0.56092894057E+01 0.57062751968E+01 0.57356569756E+01 0.56847058585E+01 0.55528483942E+01
 0.53515214776E+01 0.51021369237E+01 0.48320090211E+01 0.45612144767E+01 0.43016513768E+01
 0.40640952674E+01 0.38578293056E+01 0.36902895208E+01 0.35669830858E+01 0.34916072044E+01
 0.34662569949E+01 0.34916072036E+01 0.35669830852E+01 0.36902895220E+01 0.38578293099E+01
 0.40640952749E+01 0.43016513868E+01 0.45612144874E+01 0.48320090311E+01 0.51021369318E+01
 0.53515214833E+01 0.55528483969E+01 0.56847058573E+01 0.57356569692E+01 0.57062751837E+01
 0.52348826752E+01 0.49766747401E+01 0.47342759272E+01 0.45467870799E+01 0.44447000850E+01
 0.44447000918E+01 0.45467870986E+01 0.47342759538E+01 0.49766747694E+01 0.52348827024E+01
 0.54677097557E+01 0.56385018737E+01 0.57207087149E+01 0.57015257480E+01 0.55831724422E+01
 0.53818062252E+01 0.51244228611E+01 0.48439994262E+01 0.45653356480E+01 0.43016513867E+01
 0.40644071042E+01 0.38633286458E+01 0.37061025115E+01 0.35983146126E+01 0.35435508491E+01
 0.35435508487E+01 0.35983146120E+01 0.37061025120E+01 0.38633286487E+01 0.40644071102E+01
 0.43016513951E+01 0.45653356574E+01 0.48439994346E+01 0.51244228670E+01 0.53818062278E+01
 0.55831724409E+01 0.57015257426E+01 0.57207087045E+01 0.56385018575E+01 0.54677097334E+01
 0.45990819688E+01 0.42292614653E+01 0.39189759216E+01 0.37126980495E+01 0.36404131452E+01
 0.37126980604E+01 0.39189759416E+01 0.42292614914E+01 0.45990819973E+01 0.49766747726E+01
 0.53111317360E+01 0.55600103769E+01 0.56951211191E+01 0.57056784328E+01 0.55985869392E+01
 0.53961388655E+01 0.51317262130E+01 0.48439994419E+01 0.45612145039E+01 0.42976353988E+01
 0.40653107438E+01 0.38743058597E+01 0.37324260627E+01 0.36451524122E+01 0.36157078041E+01
 0.36451524130E+01 0.37324260645E+01 0.38743058627E+01 0.40653107479E+01 0.42976354040E+01
 0.45612145097E+01 0.48439994476E+01 0.51317262175E+01 0.53961388676E+01 0.55985869375E+01
 0.57056784263E+01 0.56951211068E+01 0.55600103586E+01 0.53111317122E+01 0.49766747451E+01
 0.37148696661E+01 0.32552590300E+01 0.29100208208E+01 0.27249707262E+01 0.27249707298E+01
 0.29100208316E+01 0.32552590473E+01 0.37148696886E+01 0.42292614962E+01 0.47342759580E+01
 0.51707596079E+01 0.54927727924E+01 0.56730981559E+01 0.57054127405E+01 0.56032185946E+01
 0.53961388762E+01 0.51244228905E+01 0.48320090675E+01 0.45487407697E+01 0.42894791431E+01
 0.40667153141E+01 0.38906806509E+01 0.37690805309E+01 0.37070165191E+01 0.37070165203E+01
 0.37690805341E+01 0.38906806550E+01 0.40667153180E+01 0.42894791464E+01 0.45487407723E+01
 0.48320090699E+01 0.51244228928E+01 0.53961388778E+01 0.56032185939E+01 0.57054127356E+01
 0.56730981451E+01 0.54927727752E+01 0.51707595855E+01 0.47342759325E+01 0.42292614708E+01
 0.26305240827E+01 0.21192187753E+01 0.17842963601E+01 0.16677460631E+01 0.17842963642E+01
 0.21192187838E+01 0.26305240958E+01 0.32552590539E+01 0.39189759479E+01 0.45467870969E+01
 0.50739852287E+01 0.54543052824E+01 0.56645700432E+01 0.57054127370E+01 0.55985869490E+01
 0.53818062593E+01 0.51021369834E+01 0.48077130784E+01 0.45276370732E+01 0.42769900968E+01
 0.40684830794E+01 0.39122519961E+01 0.38155969514E+01 0.37828937776E+01 0.38155969536E+01
 0.39122519997E+01 0.40684830832E+01 0.42769900998E+01 0.45276370750E+01 0.48077130794E+01
 0.51021369840E+01 0.53818062595E+01 0.55985869480E+01 0.57054127332E+01 0.56645700351E+01
 0.54543052693E+01 0.50739852113E+01 0.45467870772E+01 0.39189759283E+01 0.32552590369E+01
 0.14277758728E+01 0.91555009325E+00 0.64313577792E+00 0.64313577876E+00 0.91555009591E+00
 0.14277758776E+01 0.21192187920E+01 0.29100208402E+01 0.37126980592E+01 0.44447000739E+01
 0.50395142726E+01 0.54543052600E+01 0.56730981314E+01 0.57056784263E+01 0.55831724677E+01
 0.53515215397E+01 0.50639594033E+01 0.47706274306E+01 0.44976006594E+01 0.42599996969E+01
 0.40704446605E+01 0.39386331667E+01 0.38710926786E+01 0.38710926791E+01 0.39386331682E+01
 0.40704446625E+01 0.42599996991E+01 0.44976006614E+01 0.47706274321E+01 0.50639594042E+01
 0.53515215396E+01 0.55831724660E+01 0.57056784224E+01 0.56730981249E+01 0.54543052508E+01
 0.50395142616E+01 0.44447000621E+01 0.37126980479E+01 0.29100208306E+01 0.21192187847E+01
 0.21360548779E+00 -.24248617266E+00 -.40057738664E+00 -.24248617341E+00 0.21360548670E+00
 0.91555010505E+00 0.17842963747E+01 0.27249707297E+01 0.36404131242E+01 0.44447000409E+01
 0.50739851706E+01 0.54927727309E+01 0.56951210794E+01 0.57015257491E+01 0.55528484445E+01
 0.53026524229E+01 0.50090343163E+01 0.47203438474E+01 0.44584864613E+01 0.42384619232E+01
 0.40724138183E+01 0.39692065935E+01 0.39342065276E+01 0.39692065937E+01 0.40724138187E+01
 0.42384619240E+01 0.44584864625E+01 0.47203438489E+01 0.50090343175E+01 0.53026524232E+01
 0.55528484432E+01 0.57015257459E+01 0.56951210744E+01 0.54927727246E+01 0.50739851640E+01
 0.44447000352E+01 0.36404131201E+01 0.27249707276E+01 0.17842963743E+01 0.91555010580E+00
 -.89345125961E+00 -.12380607171E+01 -.12380607190E+01 -.89345126463E+00 -.24248616449E+00
 0.64313579016E+00 0.16677460643E+01 0.27249707042E+01 0.37126979980E+01 0.45467870039E+01
 0.51707595042E+01 0.55600102924E+01 0.57207086761E+01 0.56847058804E+01 0.55020692781E+01
 0.52326028194E+01 0.49370150714E+01 0.46567985324E+01 0.44104776317E+01 0.42125317627E+01
 0.40742013867E+01 0.40031154405E+01 0.40031154408E+01 0.40742013874E+01 0.42125317635E+01
 0.44104776323E+01 0.46567985325E+01 0.49370150712E+01 0.52326028188E+01 0.55020692770E+01
 0.56847058787E+01 0.57207086737E+01 0.55600102892E+01 0.51707595007E+01 0.45467870011E+01
 0.37126979969E+01 0.27249707058E+01 0.16677460687E+01 0.64313579648E+00 -.24248615786E+00
 -.17797379711E+01 -.19670657436E+01 -.17797379767E+01 -.12380607118E+01 -.40057737635E+00
 0.64313577994E+00 0.17842963393E+01 0.29100207669E+01 0.39189758350E+01 0.47342758220E+01
 0.53111316082E+01 0.56385017877E+01 0.57356569554E+01 0.56453872160E+01 0.54255270841E+01
 0.51400279647E+01 0.48479868161E+01 0.45804959252E+01 0.43542035077E+01 0.41826094162E+01
 0.40756303684E+01 0.40392973821E+01 0.40756303696E+01 0.41826094179E+01 0.43542035086E+01
 0.45804959247E+01 0.48479868141E+01 0.51400279620E+01 0.54255270818E+01 0.56453872147E+01
 0.57356569550E+01 0.56385017875E+01 0.53111316075E+01 0.47342758208E+01 0.39189758344E+01
 0.29100207684E+01 0.17842963442E+01 0.64313578827E+00 -.40057736610E+00 -.12380607024E+01
 -.23521006160E+01 -.23521006189E+01 -.19670657398E+01 -.12380607103E+01 -.24248617131E+00
 0.91555007520E+00 0.21192187247E+01 0.32552589421E+01 0.42292613489E+01 0.49766746174E+01
 0.54677096293E+01 0.57062751310E+01 0.57244746219E+01 0.55745618212E+01 0.53198911574E+01
 0.50258730190E+01 0.47428390812E+01 0.44926451251E+01 0.42907884229E+01 0.41493490856E+01
 0.40765537020E+01 0.40765537025E+01 0.41493490867E+01 0.42907884236E+01 0.44926451245E+01
 0.47428390790E+01 0.50258730159E+01 0.53198911545E+01 0.55745618193E+01 0.57244746213E+01
 0.57062751313E+01 0.54677096295E+01 0.49766746172E+01 0.42292613485E+01 0.32552589428E+01
 0.21192187280E+01 0.91555008182E+00 -.24248616201E+00 -.12380607004E+01 -.19670657322E+01
 -.23521006181E+01 -.19670657372E+01 -.12380607073E+01 -.24248616945E+00 0.91555007523E+00
 0.21192187232E+01 0.32552589402E+01 0.42292613477E+01 0.49766746177E+01 0.54677096307E+01
 0.57062751327E+01 0.57244746228E+01 0.55745618208E+01 0.53198911562E+01 0.50258730178E+01
 0.47428390811E+01 0.44926451266E+01 0.42907884253E+01 0.41493490879E+01 0.40765537029E+01
 0.40765537017E+01 0.41493490848E+01 0.42907884217E+01 0.44926451238E+01 0.47428390800E+01
 0.50258730182E+01 0.53198911569E+01 0.55745618207E+01 0.57244746210E+01 0.57062751294E+01