   1   1   1   0
  0.1482975E+02  0.2757716E-09  0.2757716E-09  0.2757716E-09  0.5000000E-15
  1.000000000000000E-004
  CAR 
 DFT Virtual Orbitals                    
     30.00959737     -7.96489648  301      9.62676239      1.00000000
     -7.965  0.0000E+00  0.0000E+00
     -7.838  0.0000E+00  0.0000E+00
     -7.712  0.0000E+00  0.0000E+00
     -7.585  0.0000E+00  0.0000E+00
     -7.459  0.0000E+00  0.0000E+00
     -7.332  0.0000E+00  0.0000E+00
     -7.205  0.0000E+00  0.0000E+00
     -7.079 -0.3909E-31 -0.4948E-32
     -6.952 -0.1152E-22 -0.1458E-23
     -6.826 -0.1293E-15 -0.1636E-16
     -6.699 -0.5696E-10 -0.7210E-11
     -6.572 -0.9167E-06 -0.1160E-06
     -6.446 -0.4604E-03 -0.5839E-04
     -6.319  0.1087E-02  0.7920E-04
     -6.193  0.6137E-01  0.7847E-02
     -6.066  0.1243E-01  0.9421E-02
     -5.940 -0.1267E-02  0.9260E-02
     -5.813 -0.7146E-05  0.9259E-02
     -5.686 -0.1203E-04  0.9258E-02
     -5.560 -0.4790E-02  0.8651E-02
     -5.433  0.2314E-01  0.1158E-01
     -5.307  0.5023E+00  0.7516E-01
     -5.180  0.5814E-01  0.8252E-01
     -5.054  0.2791E+00  0.1179E+00
     -4.927  0.1799E+00  0.1406E+00
     -4.800 -0.1355E-01  0.1389E+00
     -4.674 -0.2226E-03  0.1389E+00
     -4.547 -0.8135E-07  0.1389E+00
     -4.421 -0.3098E-11  0.1389E+00
     -4.294 -0.1632E-06  0.1389E+00
     -4.167 -0.4461E-03  0.1388E+00
     -4.041 -0.2710E-01  0.1354E+00
     -3.914  0.3602E+00  0.1810E+00
     -3.788  0.5745E+00  0.2537E+00
     -3.661 -0.2780E-01  0.2502E+00
     -3.535 -0.1658E-02  0.2500E+00
     -3.408 -0.2068E-05  0.2500E+00
     -3.281 -0.1477E-02  0.2498E+00
     -3.155 -0.5924E-01  0.2423E+00
     -3.028  0.8812E+00  0.3539E+00
     -2.902  0.9857E+00  0.4786E+00
     -2.775  0.6038E-01  0.4863E+00
     -2.648  0.4764E+00  0.5466E+00
     -2.522  0.7501E-03  0.5467E+00
     -2.395 -0.3042E-02  0.5463E+00
     -2.269 -0.5168E-05  0.5463E+00
     -2.142 -0.2777E-09  0.5463E+00
     -2.016 -0.9561E-09  0.5463E+00
     -1.889 -0.1130E-04  0.5463E+00
     -1.762 -0.4035E-02  0.5458E+00
     -1.636  0.2333E-01  0.5487E+00
     -1.509  0.3798E+00  0.5968E+00
     -1.383  0.4548E-01  0.6026E+00
     -1.256 -0.5620E-02  0.6019E+00
     -1.129 -0.2212E-04  0.6019E+00
     -1.003 -0.1389E-03  0.6018E+00
     -0.876 -0.2772E-01  0.5983E+00
     -0.750  0.2580E+00  0.6310E+00
     -0.623  0.1485E+01  0.8190E+00
     -0.497  0.2713E-01  0.8224E+00
     -0.370  0.1374E+01  0.9963E+00
     -0.243  0.4343E+00  0.1051E+01
     -0.117 -0.3913E-01  0.1046E+01
      0.010 -0.3177E-03  0.1046E+01
      0.136 -0.6712E-07  0.1046E+01
      0.263 -0.3090E-09  0.1046E+01
      0.389 -0.7637E-05  0.1046E+01
      0.516 -0.6122E-02  0.1046E+01
      0.643 -0.3168E-01  0.1042E+01
      0.769  0.1336E+01  0.1211E+01
      0.896  0.5004E+00  0.1274E+01
      1.022 -0.4391E-01  0.1268E+01
      1.149 -0.7443E-02  0.1268E+01
      1.276  0.2135E+00  0.1295E+01
      1.402  0.8837E-01  0.1306E+01
      1.529 -0.3514E-01  0.1301E+01
      1.655  0.1354E+01  0.1473E+01
      1.782  0.4770E+00  0.1533E+01
      1.908 -0.4656E-01  0.1527E+01
      2.035  0.4619E-01  0.1533E+01
      2.162  0.2471E+00  0.1564E+01
      2.288  0.5770E-02  0.1565E+01
      2.415 -0.1953E-02  0.1565E+01
      2.541 -0.4090E-05  0.1565E+01
      2.668 -0.7862E-06  0.1565E+01
      2.795 -0.1196E-02  0.1565E+01
      2.921 -0.2982E-01  0.1561E+01
      3.048  0.5207E+00  0.1627E+01
      3.174  0.4178E+00  0.1680E+01
      3.301 -0.2918E-01  0.1676E+01
      3.427 -0.2415E-01  0.1673E+01
      3.554  0.1965E+00  0.1698E+01
      3.681  0.1508E+01  0.1889E+01
      3.807  0.1836E+00  0.1912E+01
      3.934  0.1181E+00  0.1927E+01
      4.060 -0.9708E-02  0.1926E+01
      4.187 -0.1141E+00  0.1911E+01
      4.314  0.1592E+01  0.2113E+01
      4.440  0.2158E+01  0.2386E+01
      4.567 -0.1213E+00  0.2371E+01
      4.693  0.3937E-01  0.2375E+01
      4.820  0.1541E+00  0.2395E+01
      4.946  0.3238E+00  0.2436E+01
      5.073  0.6062E+00  0.2513E+01
      5.200 -0.2523E-01  0.2510E+01
      5.326 -0.2034E-02  0.2509E+01
      5.453 -0.2051E-05  0.2509E+01
      5.579 -0.4322E-03  0.2509E+01
      5.706 -0.2690E-01  0.2506E+01
      5.833  0.3551E+00  0.2551E+01
      5.959  0.5545E+00  0.2621E+01
      6.086  0.2718E+00  0.2655E+01
      6.212  0.5659E+00  0.2727E+01
      6.339  0.1075E+01  0.2863E+01
      6.465  0.7737E+00  0.2961E+01
      6.592 -0.5633E-01  0.2954E+01
      6.719 -0.1066E-02  0.2954E+01
      6.845 -0.7085E-06  0.2954E+01
      6.972 -0.6257E-03  0.2954E+01
      7.098 -0.2897E-01  0.2950E+01
      7.225  0.4137E+00  0.3002E+01
      7.351  0.5247E+00  0.3069E+01
      7.478 -0.2979E-01  0.3065E+01
      7.605 -0.1064E-01  0.3064E+01
      7.731  0.8857E-01  0.3075E+01
      7.858  0.4964E+00  0.3138E+01
      7.984  0.1212E-01  0.3139E+01
      8.111 -0.6471E-01  0.3131E+01
      8.238  0.8859E+00  0.3243E+01
      8.364  0.1423E+01  0.3423E+01
      8.491  0.4193E+00  0.3476E+01
      8.617 -0.3198E-01  0.3472E+01
      8.744 -0.6067E-02  0.3472E+01
      8.870 -0.4140E-01  0.3466E+01
      8.997  0.1286E+01  0.3629E+01
      9.124  0.5634E+00  0.3700E+01
      9.250 -0.4787E-01  0.3694E+01
      9.377 -0.6103E-01  0.3687E+01
      9.503  0.8067E+00  0.3789E+01
      9.630  0.1692E+01  0.4003E+01
      9.757  0.2230E+00  0.4031E+01
      9.883 -0.2580E-01  0.4028E+01
     10.010 -0.2641E-03  0.4028E+01
     10.136 -0.9021E-05  0.4028E+01
     10.263 -0.8201E-02  0.4027E+01
     10.389 -0.9135E-01  0.4015E+01
     10.516  0.2325E+01  0.4309E+01
     10.643  0.1368E+01  0.4483E+01
     10.769  0.6656E-01  0.4491E+01
     10.896  0.1520E+01  0.4683E+01
     11.022  0.1036E+00  0.4697E+01
     11.149 -0.1829E-01  0.4694E+01
     11.276 -0.5888E-01  0.4687E+01
     11.402  0.8619E+00  0.4796E+01
     11.529  0.1016E+01  0.4925E+01
     11.655 -0.6000E-01  0.4917E+01
     11.782 -0.2218E-02  0.4917E+01
     11.908 -0.5040E-03  0.4917E+01
     12.035 -0.1505E-01  0.4915E+01
     12.162  0.2459E+00  0.4946E+01
     12.288  0.2238E+00  0.4974E+01
     12.415 -0.1487E-01  0.4972E+01
     12.541 -0.3929E-03  0.4972E+01
     12.668 -0.4516E-02  0.4972E+01
     12.794 -0.2335E-03  0.4972E+01
     12.921  0.6640E+00  0.5056E+01
     13.048  0.8683E+00  0.5166E+01
     13.174  0.1159E+01  0.5312E+01
     13.301 -0.7590E-01  0.5303E+01
     13.427  0.8115E+00  0.5405E+01
     13.554  0.1418E+01  0.5585E+01
     13.681  0.2033E+00  0.5611E+01
     13.807  0.6774E+00  0.5696E+01
     13.934 -0.1663E-01  0.5694E+01
     14.060 -0.4679E-01  0.5688E+01
     14.187  0.1224E+01  0.5843E+01
     14.313  0.1256E+01  0.6002E+01
     14.440  0.1673E+01  0.6214E+01
     14.567  0.3079E+00  0.6253E+01
     14.693  0.9200E-01  0.6265E+01
     14.820  0.1113E+00  0.6279E+01
     14.946 -0.2057E-01  0.6276E+01
     15.073  0.1461E+00  0.6295E+01
     15.200  0.4591E+00  0.6353E+01
     15.326 -0.3348E-01  0.6349E+01
     15.453  0.5829E+00  0.6422E+01
     15.579  0.3481E+00  0.6466E+01
     15.706 -0.4022E-01  0.6461E+01
     15.832  0.1815E+00  0.6484E+01
     15.959  0.2832E+00  0.6520E+01
     16.086 -0.7370E-01  0.6511E+01
     16.212  0.1030E+01  0.6641E+01
     16.339  0.8286E+00  0.6746E+01
     16.465  0.1350E+01  0.6917E+01
     16.592  0.3532E+00  0.6962E+01
     16.719  0.4694E+00  0.7021E+01
     16.845  0.1962E+01  0.7269E+01
     16.972  0.1150E+01  0.7415E+01
     17.098 -0.6143E-01  0.7407E+01
     17.225  0.1628E+00  0.7428E+01
     17.351  0.3290E-01  0.7432E+01
     17.478  0.5625E+00  0.7503E+01
     17.605  0.3676E+00  0.7550E+01
     17.731 -0.2742E-01  0.7546E+01
     17.858 -0.1098E-01  0.7545E+01
     17.984  0.9861E-02  0.7546E+01
     18.111  0.1520E+01  0.7739E+01
     18.238  0.1099E+01  0.7878E+01
     18.364  0.4225E+00  0.7931E+01
     18.491  0.3784E-01  0.7936E+01
     18.617 -0.5841E-02  0.7935E+01
     18.744 -0.2419E-04  0.7935E+01
     18.870 -0.1537E-02  0.7935E+01
     18.997 -0.1151E+00  0.7920E+01
     19.124  0.1345E+01  0.8091E+01
     19.250  0.4125E+01  0.8613E+01
     19.377  0.4367E+00  0.8668E+01
     19.503  0.3275E+00  0.8710E+01
     19.630  0.3098E-01  0.8714E+01
     19.756 -0.4841E-02  0.8713E+01
     19.883 -0.2652E-01  0.8710E+01
     20.010  0.2964E+00  0.8747E+01
     20.136  0.9191E+00  0.8863E+01
     20.263 -0.1364E-01  0.8862E+01
     20.389 -0.4811E-02  0.8861E+01
     20.516 -0.9573E-02  0.8860E+01
     20.643  0.6730E-01  0.8868E+01
     20.769  0.7574E+00  0.8964E+01
     20.896  0.2393E-01  0.8967E+01
     21.022  0.1263E+01  0.9127E+01
     21.149  0.5793E+00  0.9201E+01
     21.275 -0.4809E-01  0.9194E+01
     21.402 -0.3431E-01  0.9190E+01
     21.529  0.4332E+00  0.9245E+01
     21.655  0.1026E+01  0.9375E+01
     21.782  0.3853E-01  0.9380E+01
     21.908  0.1366E+01  0.9553E+01
     22.035  0.6625E+00  0.9636E+01
     22.162 -0.5272E-01  0.9630E+01
     22.288 -0.7375E-02  0.9629E+01
     22.415 -0.5782E-01  0.9621E+01
     22.541  0.1695E+01  0.9836E+01
     22.668  0.1083E+01  0.9973E+01
     22.794  0.5071E-01  0.9980E+01
     22.921  0.4946E+00  0.1004E+02
     23.048  0.6285E+00  0.1012E+02
     23.174  0.1927E+01  0.1037E+02
     23.301  0.1539E+01  0.1056E+02
     23.427 -0.3193E-01  0.1056E+02
     23.554 -0.6662E-01  0.1055E+02
     23.681  0.6885E+00  0.1064E+02
     23.807  0.1747E+01  0.1086E+02
     23.934  0.1436E+00  0.1087E+02
     24.060  0.7153E+00  0.1097E+02
     24.187  0.5544E+00  0.1104E+02
     24.313  0.4516E+00  0.1109E+02
     24.440  0.1310E+01  0.1126E+02
     24.567  0.4445E+00  0.1131E+02
     24.693  0.1334E+01  0.1148E+02
     24.820  0.1440E+00  0.1150E+02
     24.946  0.8064E+00  0.1160E+02
     25.073  0.4947E+00  0.1167E+02
     25.199  0.6192E-02  0.1167E+02
     25.326 -0.3908E-02  0.1167E+02
     25.453 -0.1781E-01  0.1166E+02
     25.579  0.1162E+00  0.1168E+02
     25.706  0.1524E+01  0.1187E+02
     25.832  0.1543E+00  0.1189E+02
     25.959 -0.2053E-01  0.1189E+02
     26.086 -0.7322E-04  0.1189E+02
     26.212 -0.7675E-08  0.1189E+02
     26.339 -0.2924E-13  0.1189E+02
     26.465  0.0000E+00  0.1189E+02
     26.592  0.0000E+00  0.1189E+02
     26.718  0.0000E+00  0.1189E+02
     26.845  0.0000E+00  0.1189E+02
     26.972  0.0000E+00  0.1189E+02
     27.098  0.0000E+00  0.1189E+02
     27.225  0.0000E+00  0.1189E+02
     27.351  0.0000E+00  0.1189E+02
     27.478 -0.1319E-27  0.1189E+02
     27.605 -0.1609E-19  0.1189E+02
     27.731 -0.7439E-13  0.1189E+02
     27.858 -0.1336E-07  0.1189E+02
     27.984 -0.8574E-04  0.1189E+02
     28.111 -0.1521E-01  0.1189E+02
     28.237  0.1491E+00  0.1191E+02
     28.364  0.7364E+00  0.1200E+02
     28.491  0.1304E-01  0.1200E+02
     28.617 -0.5524E-02  0.1200E+02
     28.744 -0.1100E-04  0.1200E+02
     28.870 -0.6835E-09  0.1200E+02
     28.997 -0.1559E-14  0.1200E+02
     29.124  0.0000E+00  0.1200E+02
     29.250  0.0000E+00  0.1200E+02
     29.377  0.0000E+00  0.1200E+02
     29.503  0.0000E+00  0.1200E+02
     29.630  0.0000E+00  0.1200E+02
     29.756  0.0000E+00  0.1200E+02
     29.883  0.0000E+00  0.1200E+02
     30.010  0.0000E+00  0.1200E+02
     30.00959737     -7.96489648  301      9.62676239      1.00000000
     -7.965  0.0000E+00  0.0000E+00  0.0000E+00  0.0000E+00  0.0000E+00  0.0000E+00  0.0000E+00  0.0000E+00  0.0000E+00
     -7.838  0.0000E+00  0.0000E+00  0.0000E+00  0.0000E+00  0.0000E+00  0.0000E+00  0.0000E+00  0.0000E+00  0.0000E+00
     -7.712  0.0000E+00  0.0000E+00  0.0000E+00  0.0000E+00  0.0000E+00  0.0000E+00  0.0000E+00  0.0000E+00  0.0000E+00
     -7.585  0.0000E+00  0.0000E+00  0.0000E+00  0.0000E+00  0.0000E+00  0.0000E+00  0.0000E+00  0.0000E+00  0.0000E+00
     -7.459  0.0000E+00  0.0000E+00  0.0000E+00  0.0000E+00  0.0000E+00  0.0000E+00  0.0000E+00  0.0000E+00  0.0000E+00
     -7.332  0.0000E+00  0.0000E+00  0.0000E+00  0.0000E+00  0.0000E+00  0.0000E+00  0.0000E+00  0.0000E+00  0.0000E+00
     -7.205  0.0000E+00  0.0000E+00  0.0000E+00  0.0000E+00  0.0000E+00  0.0000E+00  0.0000E+00  0.0000E+00  0.0000E+00
     -7.079 -0.1516E-31 -0.3574E-49 -0.3574E-49 -0.3574E-49  0.0000E+00  0.0000E+00  0.0000E+00  0.0000E+00  0.0000E+00
     -6.952 -0.4465E-23 -0.1053E-40 -0.1053E-40 -0.1053E-40  0.0000E+00  0.0000E+00  0.0000E+00  0.0000E+00  0.0000E+00
     -6.826 -0.5013E-16 -0.1182E-33 -0.1182E-33 -0.1182E-33  0.0000E+00  0.0000E+00  0.0000E+00  0.0000E+00  0.0000E+00
     -6.699 -0.2209E-10 -0.5208E-28 -0.5208E-28 -0.5208E-28  0.0000E+00  0.0000E+00  0.0000E+00  0.0000E+00  0.0000E+00
     -6.572 -0.3555E-06 -0.8381E-24 -0.8381E-24 -0.8381E-24  0.0000E+00  0.0000E+00  0.0000E+00  0.0000E+00  0.0000E+00
     -6.446 -0.1785E-03 -0.4209E-21 -0.4209E-21 -0.4209E-21  0.0000E+00  0.0000E+00  0.0000E+00  0.0000E+00  0.0000E+00
     -6.319  0.4215E-03  0.9938E-21  0.9938E-21  0.9938E-21  0.0000E+00  0.0000E+00  0.0000E+00  0.0000E+00  0.0000E+00
     -6.193  0.2380E-01  0.5611E-19  0.5611E-19  0.5611E-19  0.0000E+00  0.0000E+00  0.0000E+00  0.0000E+00  0.0000E+00
     -6.066  0.4820E-02  0.1136E-19  0.1136E-19  0.1136E-19  0.0000E+00  0.0000E+00  0.0000E+00  0.0000E+00  0.0000E+00
     -5.940 -0.4915E-03 -0.1695E-16 -0.1695E-16 -0.1695E-16  0.0000E+00  0.0000E+00  0.0000E+00  0.0000E+00  0.0000E+00
     -5.813 -0.2771E-05 -0.6039E-11 -0.6039E-11 -0.6039E-11  0.0000E+00  0.0000E+00  0.0000E+00  0.0000E+00  0.0000E+00
     -5.686 -0.4452E-05 -0.7874E-07 -0.7874E-07 -0.7874E-07  0.0000E+00  0.0000E+00  0.0000E+00  0.0000E+00  0.0000E+00
     -5.560 -0.1772E-02 -0.3134E-04 -0.3134E-04 -0.3134E-04  0.0000E+00  0.0000E+00  0.0000E+00  0.0000E+00  0.0000E+00
     -5.433  0.8562E-02  0.1514E-03  0.1514E-03  0.1514E-03  0.0000E+00  0.0000E+00  0.0000E+00  0.0000E+00  0.0000E+00
     -5.307  0.1858E+00  0.3285E-02  0.3285E-02  0.3285E-02  0.0000E+00  0.0000E+00  0.0000E+00  0.0000E+00  0.0000E+00
     -5.180  0.2160E-01  0.3493E-03  0.3493E-03  0.3493E-03  0.0000E+00  0.0000E+00  0.0000E+00  0.0000E+00  0.0000E+00
     -5.054  0.1015E+00  0.2471E-02  0.2471E-02  0.2471E-02  0.0000E+00  0.0000E+00  0.0000E+00  0.0000E+00  0.0000E+00
     -4.927  0.6546E-01  0.1581E-02  0.1581E-02  0.1581E-02  0.0000E+00  0.0000E+00  0.0000E+00  0.0000E+00  0.0000E+00
     -4.800 -0.4927E-02 -0.1190E-03 -0.1190E-03 -0.1190E-03  0.0000E+00  0.0000E+00  0.0000E+00  0.0000E+00  0.0000E+00
     -4.674 -0.8099E-04 -0.1956E-05 -0.1956E-05 -0.1956E-05  0.0000E+00  0.0000E+00  0.0000E+00  0.0000E+00  0.0000E+00
     -4.547 -0.2959E-07 -0.7148E-09 -0.7148E-09 -0.7148E-09  0.0000E+00  0.0000E+00  0.0000E+00  0.0000E+00  0.0000E+00
     -4.421 -0.1082E-11 -0.4353E-13 -0.4353E-13 -0.4353E-13  0.0000E+00  0.0000E+00  0.0000E+00  0.0000E+00  0.0000E+00
     -4.294 -0.5579E-07 -0.2721E-08 -0.2721E-08 -0.2721E-08  0.0000E+00  0.0000E+00  0.0000E+00  0.0000E+00  0.0000E+00
     -4.167 -0.1525E-03 -0.7439E-05 -0.7439E-05 -0.7439E-05  0.0000E+00  0.0000E+00  0.0000E+00  0.0000E+00  0.0000E+00
     -4.041 -0.9268E-02 -0.4520E-03 -0.4520E-03 -0.4520E-03  0.0000E+00  0.0000E+00  0.0000E+00  0.0000E+00  0.0000E+00
     -3.914  0.1232E+00  0.6008E-02  0.6008E-02  0.6008E-02  0.0000E+00  0.0000E+00  0.0000E+00  0.0000E+00  0.0000E+00
     -3.788  0.1965E+00  0.9582E-02  0.9582E-02  0.9582E-02  0.0000E+00  0.0000E+00  0.0000E+00  0.0000E+00  0.0000E+00
     -3.661 -0.9507E-02 -0.4637E-03 -0.4637E-03 -0.4637E-03  0.0000E+00  0.0000E+00  0.0000E+00  0.0000E+00  0.0000E+00
     -3.535 -0.5668E-03 -0.2764E-04 -0.2764E-04 -0.2764E-04  0.0000E+00  0.0000E+00  0.0000E+00  0.0000E+00  0.0000E+00
     -3.408 -0.6951E-06 -0.3873E-07 -0.3873E-07 -0.3873E-07  0.0000E+00  0.0000E+00  0.0000E+00  0.0000E+00  0.0000E+00
     -3.281 -0.4805E-03 -0.3332E-04 -0.3332E-04 -0.3332E-04  0.0000E+00  0.0000E+00  0.0000E+00  0.0000E+00  0.0000E+00
     -3.155 -0.1927E-01 -0.1337E-02 -0.1337E-02 -0.1337E-02  0.0000E+00  0.0000E+00  0.0000E+00  0.0000E+00  0.0000E+00
     -3.028  0.2867E+00  0.1988E-01  0.1988E-01  0.1988E-01  0.0000E+00  0.0000E+00  0.0000E+00  0.0000E+00  0.0000E+00
     -2.902  0.3207E+00  0.2223E-01  0.2223E-01  0.2223E-01  0.0000E+00  0.0000E+00  0.0000E+00  0.0000E+00  0.0000E+00
     -2.775  0.1946E-01  0.1450E-02  0.1450E-02  0.1450E-02  0.0000E+00  0.0000E+00  0.0000E+00  0.0000E+00  0.0000E+00
     -2.648  0.1543E+00  0.1110E-01  0.1110E-01  0.1110E-01  0.0000E+00  0.0000E+00  0.0000E+00  0.0000E+00  0.0000E+00
     -2.522  0.2429E-03  0.1747E-04  0.1747E-04  0.1747E-04  0.0000E+00  0.0000E+00  0.0000E+00  0.0000E+00  0.0000E+00
     -2.395 -0.9850E-03 -0.7085E-04 -0.7085E-04 -0.7085E-04  0.0000E+00  0.0000E+00  0.0000E+00  0.0000E+00  0.0000E+00
     -2.269 -0.1674E-05 -0.1204E-06 -0.1204E-06 -0.1204E-06  0.0000E+00  0.0000E+00  0.0000E+00  0.0000E+00  0.0000E+00
     -2.142 -0.8994E-10 -0.6469E-11 -0.6469E-11 -0.6469E-11  0.0000E+00  0.0000E+00  0.0000E+00  0.0000E+00  0.0000E+00
     -2.016 -0.2822E-09 -0.3150E-10 -0.3150E-10 -0.3150E-10  0.0000E+00  0.0000E+00  0.0000E+00  0.0000E+00  0.0000E+00
     -1.889 -0.3336E-05 -0.3724E-06 -0.3724E-06 -0.3724E-06  0.0000E+00  0.0000E+00  0.0000E+00  0.0000E+00  0.0000E+00
     -1.762 -0.1191E-02 -0.1329E-03 -0.1329E-03 -0.1329E-03  0.0000E+00  0.0000E+00  0.0000E+00  0.0000E+00  0.0000E+00
     -1.636  0.6885E-02  0.7686E-03  0.7686E-03  0.7686E-03  0.0000E+00  0.0000E+00  0.0000E+00  0.0000E+00  0.0000E+00
     -1.509  0.1121E+00  0.1251E-01  0.1251E-01  0.1251E-01  0.0000E+00  0.0000E+00  0.0000E+00  0.0000E+00  0.0000E+00
     -1.383  0.1342E-01  0.1499E-02  0.1499E-02  0.1499E-02  0.0000E+00  0.0000E+00  0.0000E+00  0.0000E+00  0.0000E+00
     -1.256 -0.1659E-02 -0.1852E-03 -0.1852E-03 -0.1852E-03  0.0000E+00  0.0000E+00  0.0000E+00  0.0000E+00  0.0000E+00
     -1.129 -0.6528E-05 -0.7287E-06 -0.7287E-06 -0.7287E-06  0.0000E+00  0.0000E+00  0.0000E+00  0.0000E+00  0.0000E+00
     -1.003 -0.4081E-04 -0.4763E-05 -0.4763E-05 -0.4763E-05  0.0000E+00  0.0000E+00  0.0000E+00  0.0000E+00  0.0000E+00
     -0.876 -0.8142E-02 -0.9503E-03 -0.9503E-03 -0.9503E-03  0.0000E+00  0.0000E+00  0.0000E+00  0.0000E+00  0.0000E+00
     -0.750  0.7579E-01  0.8846E-02  0.8846E-02  0.8846E-02  0.0000E+00  0.0000E+00  0.0000E+00  0.0000E+00  0.0000E+00
     -0.623  0.4364E+00  0.5089E-01  0.5089E-01  0.5089E-01  0.0000E+00  0.0000E+00  0.0000E+00  0.0000E+00  0.0000E+00
     -0.497  0.8201E-02  0.8596E-03  0.8596E-03  0.8596E-03  0.0000E+00  0.0000E+00  0.0000E+00  0.0000E+00  0.0000E+00
     -0.370  0.3856E+00  0.5250E-01  0.5250E-01  0.5250E-01  0.0000E+00  0.0000E+00  0.0000E+00  0.0000E+00  0.0000E+00
     -0.243  0.1220E+00  0.1658E-01  0.1658E-01  0.1658E-01  0.0000E+00  0.0000E+00  0.0000E+00  0.0000E+00  0.0000E+00
     -0.117 -0.1099E-01 -0.1494E-02 -0.1494E-02 -0.1494E-02  0.0000E+00  0.0000E+00  0.0000E+00  0.0000E+00  0.0000E+00
      0.010 -0.8923E-04 -0.1213E-04 -0.1213E-04 -0.1213E-04  0.0000E+00  0.0000E+00  0.0000E+00  0.0000E+00  0.0000E+00
      0.136 -0.1885E-07 -0.2563E-08 -0.2563E-08 -0.2563E-08  0.0000E+00  0.0000E+00  0.0000E+00  0.0000E+00  0.0000E+00
      0.263 -0.8920E-10 -0.1175E-10 -0.1175E-10 -0.1175E-10  0.0000E+00  0.0000E+00  0.0000E+00  0.0000E+00  0.0000E+00
      0.389 -0.2204E-05 -0.2903E-06 -0.2903E-06 -0.2903E-06  0.0000E+00  0.0000E+00  0.0000E+00  0.0000E+00  0.0000E+00
      0.516 -0.1767E-02 -0.2327E-03 -0.2327E-03 -0.2327E-03  0.0000E+00  0.0000E+00  0.0000E+00  0.0000E+00  0.0000E+00
      0.643 -0.9144E-02 -0.1204E-02 -0.1204E-02 -0.1204E-02  0.0000E+00  0.0000E+00  0.0000E+00  0.0000E+00  0.0000E+00
      0.769  0.3858E+00  0.5080E-01  0.5080E-01  0.5080E-01  0.0000E+00  0.0000E+00  0.0000E+00  0.0000E+00  0.0000E+00
      0.896  0.1444E+00  0.1902E-01  0.1902E-01  0.1902E-01  0.0000E+00  0.0000E+00  0.0000E+00  0.0000E+00  0.0000E+00
      1.022 -0.1282E-01 -0.1637E-02 -0.1637E-02 -0.1637E-02  0.0000E+00  0.0000E+00  0.0000E+00  0.0000E+00  0.0000E+00
      1.149 -0.3317E-02 -0.1570E-04 -0.1570E-04 -0.1570E-04  0.0000E+00  0.0000E+00  0.0000E+00  0.0000E+00  0.0000E+00
      1.276  0.9711E-01 -0.4521E-06 -0.4521E-06 -0.4521E-06  0.0000E+00  0.0000E+00  0.0000E+00  0.0000E+00  0.0000E+00
      1.402  0.4162E-01 -0.3421E-03 -0.3421E-03 -0.3421E-03  0.0000E+00  0.0000E+00  0.0000E+00  0.0000E+00  0.0000E+00
      1.529 -0.1005E-01 -0.1429E-02 -0.1429E-02 -0.1429E-02  0.0000E+00  0.0000E+00  0.0000E+00  0.0000E+00  0.0000E+00
      1.655  0.3217E+00  0.7086E-01  0.7086E-01  0.7086E-01  0.0000E+00  0.0000E+00  0.0000E+00  0.0000E+00  0.0000E+00
      1.782  0.1133E+00  0.2496E-01  0.2496E-01  0.2496E-01  0.0000E+00  0.0000E+00  0.0000E+00  0.0000E+00  0.0000E+00
      1.908 -0.9906E-02 -0.2688E-02 -0.2688E-02 -0.2688E-02  0.0000E+00  0.0000E+00  0.0000E+00  0.0000E+00  0.0000E+00
      2.035 -0.8960E-04  0.4834E-02  0.4834E-02  0.4834E-02  0.0000E+00  0.0000E+00  0.0000E+00  0.0000E+00  0.0000E+00
      2.162 -0.2066E-07  0.2576E-01  0.2576E-01  0.2576E-01  0.0000E+00  0.0000E+00  0.0000E+00  0.0000E+00  0.0000E+00
      2.288 -0.1681E-12  0.6015E-03  0.6015E-03  0.6015E-03  0.0000E+00  0.0000E+00  0.0000E+00  0.0000E+00  0.0000E+00
      2.415 -0.3923E-17 -0.2036E-03 -0.2036E-03 -0.2036E-03  0.0000E+00  0.0000E+00  0.0000E+00  0.0000E+00  0.0000E+00
      2.541 -0.4583E-11 -0.4263E-06 -0.4263E-06 -0.4263E-06  0.0000E+00  0.0000E+00  0.0000E+00  0.0000E+00  0.0000E+00
      2.668 -0.2070E-06 -0.3837E-07 -0.3837E-07 -0.3837E-07  0.0000E+00  0.0000E+00  0.0000E+00  0.0000E+00  0.0000E+00
      2.795 -0.3151E-03 -0.5835E-04 -0.5835E-04 -0.5835E-04  0.0000E+00  0.0000E+00  0.0000E+00  0.0000E+00  0.0000E+00
      2.921 -0.7855E-02 -0.1455E-02 -0.1455E-02 -0.1455E-02  0.0000E+00  0.0000E+00  0.0000E+00  0.0000E+00  0.0000E+00
      3.048  0.1372E+00  0.2540E-01  0.2540E-01  0.2540E-01  0.0000E+00  0.0000E+00  0.0000E+00  0.0000E+00  0.0000E+00
      3.174  0.1100E+00  0.2038E-01  0.2038E-01  0.2038E-01  0.0000E+00  0.0000E+00  0.0000E+00  0.0000E+00  0.0000E+00
      3.301 -0.7698E-02 -0.1422E-02 -0.1422E-02 -0.1422E-02  0.0000E+00  0.0000E+00  0.0000E+00  0.0000E+00  0.0000E+00
      3.427 -0.9075E-02 -0.6903E-03 -0.6903E-03 -0.6903E-03  0.0000E+00  0.0000E+00  0.0000E+00  0.0000E+00  0.0000E+00
      3.554  0.7450E-01  0.5495E-02  0.5495E-02  0.5495E-02  0.0000E+00  0.0000E+00  0.0000E+00  0.0000E+00  0.0000E+00
      3.681  0.5742E+00  0.4165E-01  0.4165E-01  0.4165E-01  0.0000E+00  0.0000E+00  0.0000E+00  0.0000E+00  0.0000E+00
      3.807  0.3128E-01  0.1407E-01  0.1407E-01  0.1407E-01  0.0000E+00  0.0000E+00  0.0000E+00  0.0000E+00  0.0000E+00
      3.934 -0.5814E-02  0.1510E-01  0.1510E-01  0.1510E-01  0.0000E+00  0.0000E+00  0.0000E+00  0.0000E+00  0.0000E+00
      4.060 -0.1567E-03 -0.1064E-02 -0.1064E-02 -0.1064E-02  0.0000E+00  0.0000E+00  0.0000E+00  0.0000E+00  0.0000E+00
      4.187 -0.7830E-02 -0.1005E-01 -0.1005E-01 -0.1005E-01  0.0000E+00  0.0000E+00  0.0000E+00  0.0000E+00  0.0000E+00
      4.314  0.1065E+00  0.1406E+00  0.1406E+00  0.1406E+00  0.0000E+00  0.0000E+00  0.0000E+00  0.0000E+00  0.0000E+00
      4.440  0.1570E+00  0.1882E+00  0.1882E+00  0.1882E+00  0.0000E+00  0.0000E+00  0.0000E+00  0.0000E+00  0.0000E+00
      4.567 -0.1005E-01 -0.1029E-01 -0.1029E-01 -0.1029E-01  0.0000E+00  0.0000E+00  0.0000E+00  0.0000E+00  0.0000E+00
      4.693  0.2022E-01 -0.5039E-03 -0.5039E-03 -0.5039E-03  0.0000E+00  0.0000E+00  0.0000E+00  0.0000E+00  0.0000E+00
      4.820  0.8217E-01 -0.2866E-02 -0.2866E-02 -0.2866E-02  0.0000E+00  0.0000E+00  0.0000E+00  0.0000E+00  0.0000E+00
      4.946  0.1432E-03  0.3643E-01  0.3643E-01  0.3643E-01  0.0000E+00  0.0000E+00  0.0000E+00  0.0000E+00  0.0000E+00
      5.073 -0.5233E-03  0.6838E-01  0.6838E-01  0.6838E-01  0.0000E+00  0.0000E+00  0.0000E+00  0.0000E+00  0.0000E+00
      5.200 -0.8908E-06 -0.2841E-02 -0.2841E-02 -0.2841E-02  0.0000E+00  0.0000E+00  0.0000E+00  0.0000E+00  0.0000E+00
      5.326 -0.4890E-10 -0.2290E-03 -0.2290E-03 -0.2290E-03  0.0000E+00  0.0000E+00  0.0000E+00  0.0000E+00  0.0000E+00
      5.453 -0.7593E-07 -0.2145E-06 -0.2145E-06 -0.2145E-06  0.0000E+00  0.0000E+00  0.0000E+00  0.0000E+00  0.0000E+00
      5.579 -0.2113E-03 -0.2843E-05 -0.2843E-05 -0.2843E-05  0.0000E+00  0.0000E+00  0.0000E+00  0.0000E+00  0.0000E+00
      5.706 -0.1315E-01 -0.1770E-03 -0.1770E-03 -0.1770E-03  0.0000E+00  0.0000E+00  0.0000E+00  0.0000E+00  0.0000E+00
      5.833  0.1737E+00  0.2305E-02  0.2305E-02  0.2305E-02  0.0000E+00  0.0000E+00  0.0000E+00  0.0000E+00  0.0000E+00
      5.959  0.2830E+00  0.1148E-02  0.1148E-02  0.1148E-02  0.0000E+00  0.0000E+00  0.0000E+00  0.0000E+00  0.0000E+00
      6.086 -0.1382E-01  0.3255E-01  0.3255E-01  0.3255E-01  0.0000E+00  0.0000E+00  0.0000E+00  0.0000E+00  0.0000E+00
      6.212 -0.8270E-02  0.6367E-01  0.6367E-01  0.6367E-01  0.0000E+00  0.0000E+00  0.0000E+00  0.0000E+00  0.0000E+00
      6.339  0.1406E+00  0.8365E-01  0.8365E-01  0.8365E-01  0.0000E+00  0.0000E+00  0.0000E+00  0.0000E+00  0.0000E+00
      6.465  0.9936E-01  0.6066E-01  0.6066E-01  0.6066E-01  0.0000E+00  0.0000E+00  0.0000E+00  0.0000E+00  0.0000E+00
      6.592 -0.7212E-02 -0.4421E-02 -0.4421E-02 -0.4421E-02  0.0000E+00  0.0000E+00  0.0000E+00  0.0000E+00  0.0000E+00
      6.719 -0.1364E-03 -0.8364E-04 -0.8364E-04 -0.8364E-04  0.0000E+00  0.0000E+00  0.0000E+00  0.0000E+00  0.0000E+00
      6.845 -0.1341E-06 -0.4618E-07 -0.4618E-07 -0.4618E-07  0.0000E+00  0.0000E+00  0.0000E+00  0.0000E+00  0.0000E+00
      6.972 -0.1779E-03 -0.2784E-04 -0.2784E-04 -0.2784E-04  0.0000E+00  0.0000E+00  0.0000E+00  0.0000E+00  0.0000E+00
      7.098 -0.8238E-02 -0.1289E-02 -0.1289E-02 -0.1289E-02  0.0000E+00  0.0000E+00  0.0000E+00  0.0000E+00  0.0000E+00
      7.225  0.1176E+00  0.1841E-01  0.1841E-01  0.1841E-01  0.0000E+00  0.0000E+00  0.0000E+00  0.0000E+00  0.0000E+00
      7.351  0.1492E+00  0.2335E-01  0.2335E-01  0.2335E-01  0.0000E+00  0.0000E+00  0.0000E+00  0.0000E+00  0.0000E+00
      7.478 -0.8463E-02 -0.1328E-02 -0.1328E-02 -0.1328E-02  0.0000E+00  0.0000E+00  0.0000E+00  0.0000E+00  0.0000E+00
      7.605 -0.1503E-02 -0.8099E-03 -0.8099E-03 -0.8099E-03  0.0000E+00  0.0000E+00  0.0000E+00  0.0000E+00  0.0000E+00
      7.731  0.1087E-01  0.7108E-02  0.7108E-02  0.7108E-02  0.0000E+00  0.0000E+00  0.0000E+00  0.0000E+00  0.0000E+00
      7.858  0.6091E-01  0.3984E-01  0.3984E-01  0.3984E-01  0.0000E+00  0.0000E+00  0.0000E+00  0.0000E+00  0.0000E+00
      7.984  0.1246E-02  0.9917E-03  0.9917E-03  0.9917E-03  0.0000E+00  0.0000E+00  0.0000E+00  0.0000E+00  0.0000E+00
      8.111 -0.1661E-01 -0.4512E-02 -0.4512E-02 -0.4512E-02  0.0000E+00  0.0000E+00  0.0000E+00  0.0000E+00  0.0000E+00
      8.238  0.2468E+00  0.5967E-01  0.5967E-01  0.5967E-01  0.0000E+00  0.0000E+00  0.0000E+00  0.0000E+00  0.0000E+00
      8.364  0.2595E+00  0.1138E+00  0.1138E+00  0.1138E+00  0.0000E+00  0.0000E+00  0.0000E+00  0.0000E+00  0.0000E+00
      8.491 -0.1622E-01  0.4565E-01  0.4565E-01  0.4565E-01  0.0000E+00  0.0000E+00  0.0000E+00  0.0000E+00  0.0000E+00
      8.617 -0.5099E-03 -0.3253E-02 -0.3253E-02 -0.3253E-02  0.0000E+00  0.0000E+00  0.0000E+00  0.0000E+00  0.0000E+00
      8.744 -0.8700E-04 -0.5487E-03 -0.5487E-03 -0.5487E-03  0.0000E+00  0.0000E+00  0.0000E+00  0.0000E+00  0.0000E+00
      8.870 -0.6994E-03 -0.3643E-02 -0.3643E-02 -0.3643E-02  0.0000E+00  0.0000E+00  0.0000E+00  0.0000E+00  0.0000E+00
      8.997  0.2172E-01  0.1132E+00  0.1132E+00  0.1132E+00  0.0000E+00  0.0000E+00  0.0000E+00  0.0000E+00  0.0000E+00
      9.124  0.9520E-02  0.4959E-01  0.4959E-01  0.4959E-01  0.0000E+00  0.0000E+00  0.0000E+00  0.0000E+00  0.0000E+00
      9.250 -0.7880E-03 -0.4230E-02 -0.4230E-02 -0.4230E-02  0.0000E+00  0.0000E+00  0.0000E+00  0.0000E+00  0.0000E+00
      9.377 -0.3347E-03 -0.6091E-02 -0.6091E-02 -0.6091E-02  0.0000E+00  0.0000E+00  0.0000E+00  0.0000E+00  0.0000E+00
      9.503 -0.2653E-02  0.8201E-01  0.8201E-01  0.8201E-01  0.0000E+00  0.0000E+00  0.0000E+00  0.0000E+00  0.0000E+00
      9.630  0.8193E-01  0.1543E+00  0.1543E+00  0.1543E+00  0.0000E+00  0.0000E+00  0.0000E+00  0.0000E+00  0.0000E+00
      9.757  0.3603E-01  0.1524E-01  0.1524E-01  0.1524E-01  0.0000E+00  0.0000E+00  0.0000E+00  0.0000E+00  0.0000E+00
      9.883 -0.2978E-02 -0.2003E-02 -0.2003E-02 -0.2003E-02  0.0000E+00  0.0000E+00  0.0000E+00  0.0000E+00  0.0000E+00
     10.010 -0.3348E-04 -0.1990E-04 -0.1990E-04 -0.1990E-04  0.0000E+00  0.0000E+00  0.0000E+00  0.0000E+00  0.0000E+00
     10.136 -0.2250E-05 -0.7061E-06 -0.7061E-06 -0.7061E-06  0.0000E+00  0.0000E+00  0.0000E+00  0.0000E+00  0.0000E+00
     10.263 -0.2038E-02 -0.6492E-03 -0.6492E-03 -0.6492E-03  0.0000E+00  0.0000E+00  0.0000E+00  0.0000E+00  0.0000E+00
     10.389 -0.2205E-01 -0.7521E-02 -0.7521E-02 -0.7521E-02  0.0000E+00  0.0000E+00  0.0000E+00  0.0000E+00  0.0000E+00
     10.516  0.5707E+00  0.1872E+00  0.1872E+00  0.1872E+00  0.0000E+00  0.0000E+00  0.0000E+00  0.0000E+00  0.0000E+00
     10.643  0.3340E+00  0.1123E+00  0.1123E+00  0.1123E+00  0.0000E+00  0.0000E+00  0.0000E+00  0.0000E+00  0.0000E+00
     10.769 -0.9984E-02  0.6914E-02  0.6914E-02  0.6914E-02  0.0000E+00  0.0000E+00  0.0000E+00  0.0000E+00  0.0000E+00
     10.896  0.1334E+00  0.1375E+00  0.1375E+00  0.1375E+00  0.0000E+00  0.0000E+00  0.0000E+00  0.0000E+00  0.0000E+00
     11.022  0.9117E-02  0.9374E-02  0.9374E-02  0.9374E-02  0.0000E+00  0.0000E+00  0.0000E+00  0.0000E+00  0.0000E+00
     11.149 -0.1486E-02 -0.1646E-02 -0.1646E-02 -0.1646E-02  0.0000E+00  0.0000E+00  0.0000E+00  0.0000E+00  0.0000E+00
     11.276 -0.4352E-05 -0.5010E-02 -0.5010E-02 -0.5010E-02  0.0000E+00  0.0000E+00  0.0000E+00  0.0000E+00  0.0000E+00
     11.402 -0.3829E-09  0.7334E-01  0.7334E-01  0.7334E-01  0.0000E+00  0.0000E+00  0.0000E+00  0.0000E+00  0.0000E+00
     11.529 -0.1097E-14  0.8647E-01  0.8647E-01  0.8647E-01  0.0000E+00  0.0000E+00  0.0000E+00  0.0000E+00  0.0000E+00
     11.655 -0.1053E-11 -0.5106E-02 -0.5106E-02 -0.5106E-02  0.0000E+00  0.0000E+00  0.0000E+00  0.0000E+00  0.0000E+00
     11.782 -0.5274E-07 -0.1887E-03 -0.1887E-03 -0.1887E-03  0.0000E+00  0.0000E+00  0.0000E+00  0.0000E+00  0.0000E+00