    1    1    1    1
  0.1482975E+02  0.2757716E-09  0.2757716E-09  0.2757716E-09  0.5000000E-15
  1.000000000000000E-004
  CAR 
 DFT Virtual Orbitals                    
      4     16      6
 
  0.0000000E+00  0.0000000E+00  0.0000000E+00  0.4629630E-02
      1         -6.238783   1.000000
      2         21.818324   0.000000
      3         21.818324   0.000000
      4         21.818324   0.000000
      5         22.738406   0.000000
      6         22.738406   0.000000
 
  0.1666667E+00  0.6511885E-17 -0.4739692E-14  0.3703704E-01
      1         -5.360653   1.000000
      2         15.107316   0.000000
      3         20.043565   0.000000
      4         20.043566   0.000000
      5         23.953408   0.000000
      6         24.993635   0.000000
 
  0.3333333E+00  0.4697097E-17  0.4723145E-14  0.3703704E-01
      1         -2.734505   1.000000
      2          7.780274   1.000000
      3         19.158674   0.000000
      4         19.158675   0.000000
      5         22.960580   0.000000
      6         23.713315   0.000000
 
  0.5000000E+00 -0.2668805E-17 -0.2668805E-17  0.1851852E-01
      1          1.250790   1.000000
      2          2.082815   1.000000
      3         19.141505   0.000000
      4         19.141506   0.000000
      5         21.600167   0.000000
      6         21.600167   0.000000
 
  0.1666667E+00  0.1666667E+00  0.2348779E-16  0.2777778E-01
      1         -5.068017   1.000000
      2         17.464537   0.000000
      3         17.464538   0.000000
      4         19.155806   0.000000
      5         19.438857   0.000000
      6         22.870078   0.000000
 
  0.3333333E+00  0.1666667E+00 -0.1183855E-14  0.1111111E+00
      1         -3.024361   1.000000
      2         10.828328  -0.000000
      3         16.205520   0.000000
      4         16.862764   0.000000
      5         19.136102   0.000000
      6         23.707693   0.000000
 
  0.5000000E+00  0.1666667E+00  0.4723839E-14  0.1111111E+00
      1          0.739501   1.000000
      2          4.325569   1.000000
      3         14.328429   0.000000
      4         16.428079   0.000000
      5         19.219856   0.000000
      6         25.644953   0.000000
 
 -0.3333333E+00  0.1666667E+00  0.2668805E-17  0.1111111E+00
      1         -0.699965   1.000000
      2          6.328045   1.000000
      3         13.064439   0.000000
      4         18.066432   0.000000
      5         20.998220   0.000000
      6         24.598423   0.000000
 
 -0.1666667E+00  0.1666667E+00 -0.1126022E-14  0.5555556E-01
      1         -3.899822   1.000000
      2         12.880821   0.000000
      3         13.713535   0.000000
      4         20.705851   0.000000
      5         24.080521   0.000000
      6         24.860401   0.000000
 
  0.3333333E+00  0.3333333E+00  0.1551927E-16  0.2777778E-01
      1         -1.566889   1.000000
      2         12.158657  -0.000000
      3         14.427041   0.000000
      4         14.427041   0.000000
      5         15.846429   0.000000
      6         18.307606   0.000000
 
  0.5000000E+00  0.3333333E+00 -0.4672037E-14  0.1111111E+00
      1          1.623842   1.000000
      2          8.239128   1.000000
      3          8.971848   1.000000
      4         14.162271   0.000000
      5         16.744064   0.000000
      6         21.890125   0.000000
 
 -0.3333333E+00  0.3333333E+00  0.1296506E-14  0.5555556E-01
      1          3.040849   1.000000
      2          6.107997   1.000000
      3          7.232300   1.000000
      4         15.436654   0.000000
      5         18.176105   0.000000
      6         28.283484   0.000000
 
  0.5000000E+00  0.5000000E+00  0.5005147E-16  0.1388889E-01
      1          3.815854   1.000000
      2          4.733875   1.000000
      3         13.373636   0.000000
      4         13.373636   0.000000
      5         14.690296   0.000000
      6         17.194256   0.000000
 
  0.5000000E+00  0.3333333E+00  0.1666667E+00  0.1111111E+00
      1         -0.404711   1.000000
      2          9.510764   1.034753
      3         10.486074  -0.000000
      4         13.461817   0.000000
      5         22.538856   0.000000
      6         23.210824   0.000000
 
 -0.3333333E+00  0.3333333E+00  0.1666667E+00  0.1111111E+00
      1          3.610074   1.000000
      2          4.320427   1.000000
      3         10.512894  -0.000000
      4         11.407228  -0.000000
      5         23.111414   0.000000
      6         24.344815   0.000000
 
 -0.3333333E+00  0.5000000E+00  0.1666667E+00  0.5555556E-01
      1          4.965837   1.000000
      2          5.847610   1.000000
      3          8.365430   1.000000
      4          9.604863   0.680494
      5         21.536796   0.000000
      6         22.500099   0.000000
