       N       E                     dE             d eps       ncg     rms          ort
SDA:   1    -0.576803160984E+01   -0.57680E+01   -0.55823E-13    96   0.140E-12 0.000E+00
DMP:   2    -0.576803160995E+01   -0.10266E-09   -0.32830E-13    96   0.513E-13 0.807E-13
   1 F= -.57680316E+01 E0= -.57680415E+01  d E =0.297333E-04
