 vasp.6.3.2 27Jun22 (build Dec 02 2024 22:47:12) complex                        
  
 executed on             LinuxIFC date 2024.12.20  12:34:11
 running on    1 total cores
 distrk:  each k-point on    1 cores,    1 groups
 distr:  one band on NCORE=   1 cores,    1 groups


--------------------------------------------------------------------------------------------------------


 INCAR:
   SYSTEM = DFT Virtual Orbitals
   ENCUT = 500
   PREC = Accurate
   ISMEAR = 1
   SIGMA = 0.1
   IBRION = -1
   NSW = 0
   LORBIT = 11
   LHFCALC = .TRUE.
   HFSCREEN = 0.2
   ALGO = D
   NELM = 100
   EDIFF = 1E-6

 POTCAR:   PAW_PBE Si 05Jan2001                   
 POTCAR:   PAW_PBE Si 05Jan2001                   
   VRHFIN =Si: s2p2                                                                                 
   LEXCH  = PE                                                                                      
   EATOM  =   103.0669 eV,    7.5752 Ry                                                             
                                                                                                    
   TITEL  = PAW_PBE Si 05Jan2001                                                                    
   LULTRA =        F    use ultrasoft PP ?                                                          
   IUNSCR =        1    unscreen: 0-lin 1-nonlin 2-no                                               
   RPACOR =    1.500    partial core radius                                                         
   POMASS =   28.085; ZVAL   =    4.000    mass and valenz                                          
   RCORE  =    1.900    outmost cutoff radius                                                       
   RWIGS  =    2.480; RWIGS  =    1.312    wigner-seitz radius (au A)                               
   ENMAX  =  245.345; ENMIN  =  184.009 eV                                                          
   ICORE  =        2    local potential                                                             
   LCOR   =        T    correct aug charges                                                         
   LPAW   =        T    paw PP                                                                      
   EAUG   =  322.069                                                                                
   DEXC   =    -.007                                                                                
   RMAX   =    2.944    core radius for proj-oper                                                   
   RAUG   =    1.300    factor for augmentation sphere                                              
   RDEP   =    1.993    radius for radial grids                                                     
   QCUT   =   -4.246; QGAM   =    8.493    optimization parameters                                  
                                                                                                    
   Description                                                                                      
     l     E      TYP  RCUT    TYP  RCUT                                                            
     0   .000     23  1.900                                                                         
     0   .000     23  1.900                                                                         
     1   .000     23  1.900                                                                         
     1   .000     23  1.900                                                                         
     2   .000      7  1.900                                                                         
  local pseudopotential read in
  partial core-charges read in
  atomic valenz-charges read in
  non local Contribution for L=           0  read in
    real space projection operators read in
  non local Contribution for L=           0  read in
    real space projection operators read in
  non local Contribution for L=           1  read in
    real space projection operators read in
  non local Contribution for L=           1  read in
    real space projection operators read in
    PAW grid and wavefunctions read in
 
   number of l-projection  operators is LMAX  =           4
   number of lm-projection operators is LMMAX =           8
 
 PAW_PBE Si 05Jan2001                   :
 energy of atom  1       EATOM= -103.0669
 kinetic energy error for atom=    0.0006 (will be added to EATOM!!)
 
 
 POSCAR: fcc Si:
  positions in cartesian coordinates
  No initial velocities read in
 exchange correlation table for  LEXCH =        8
   RHO(1)=    0.500       N(1)  =     2000
   RHO(2)=  100.500       N(2)  =     4000
 


--------------------------------------------------------------------------------------------------------


 ion  position               nearest neighbor table
   1  0.000  0.000  0.000-
 
  LATTYP: Found a face centered cubic cell.
 ALAT       =     3.9000000000
  
  Lattice vectors:
  
 A1 = (   1.9500000000,   1.9500000000,   0.0000000000)
 A2 = (   0.0000000000,   1.9500000000,   1.9500000000)
 A3 = (   1.9500000000,   0.0000000000,   1.9500000000)


Analysis of symmetry for initial positions (statically):
=====================================================================
 Subroutine PRICEL returns:
 Original cell was already a primitive cell.
 

 Routine SETGRP: Setting up the symmetry group for a 
 face centered cubic supercell.


 Subroutine GETGRP returns: Found 48 space group operations
 (whereof 48 operations were pure point group operations)
 out of a pool of 48 trial point group operations.


The static configuration has the point symmetry O_h .


Analysis of symmetry for dynamics (positions and initial velocities):
=====================================================================
 Subroutine PRICEL returns:
 Original cell was already a primitive cell.
 

 Routine SETGRP: Setting up the symmetry group for a 
 face centered cubic supercell.


 Subroutine GETGRP returns: Found 48 space group operations
 (whereof 48 operations were pure point group operations)
 out of a pool of 48 trial point group operations.


The dynamic configuration has the point symmetry O_h .


 Subroutine INISYM returns: Found 48 space group operations
 (whereof 48 operations are pure point group operations),
 and found     1 'primitive' translations


----------------------------------------------------------------------------------------

                                     Primitive cell                                     

  volume of cell :      14.8297

  direct lattice vectors                    reciprocal lattice vectors
     1.950000000  1.950000000  0.000000000     0.256410256  0.256410256 -0.256410256
     0.000000000  1.950000000  1.950000000    -0.256410256  0.256410256  0.256410256
     1.950000000  0.000000000  1.950000000     0.256410256 -0.256410256  0.256410256

  length of vectors
     2.757716447  2.757716447  2.757716447     0.444115592  0.444115592  0.444115592

  position of ions in fractional coordinates (direct lattice)
     0.000000000  0.000000000  0.000000000

  ion indices of the primitive-cell ions
   primitive index   ion index
                 1           1

----------------------------------------------------------------------------------------

 
 -----------------------------------------------------------------------------
|                                                                             |
|           W    W    AA    RRRRR   N    N  II  N    N   GGGG   !!!           |
|           W    W   A  A   R    R  NN   N  II  NN   N  G    G  !!!           |
|           W    W  A    A  R    R  N N  N  II  N N  N  G       !!!           |
|           W WW W  AAAAAA  RRRRR   N  N N  II  N  N N  G  GGG   !            |
|           WW  WW  A    A  R   R   N   NN  II  N   NN  G    G                |
|           W    W  A    A  R    R  N    N  II  N    N   GGGG   !!!           |
|                                                                             |
|     The requested file  could not be found or opened for reading            |
|     k-point information. Automatic k-point generation is used as a          |
|     fallback, which may lead to unwanted results.                           |
|                                                                             |
 -----------------------------------------------------------------------------

 

Automatic generation of k-mesh.
 Grid dimensions derived from KSPACING:
 generate k-points for:    6    6    6

 Generating k-lattice:

  Cartesian coordinates                     Fractional coordinates (reciprocal lattice)
     0.042735043  0.042735043 -0.042735043     0.166666667 -0.000000000 -0.000000000
    -0.042735043  0.042735043  0.042735043    -0.000000000  0.166666667  0.000000000
     0.042735043 -0.042735043  0.042735043     0.000000000  0.000000000  0.166666667

  Length of vectors
     0.074019265  0.074019265  0.074019265

  Shift w.r.t. Gamma in fractional coordinates (k-lattice)
     0.000000000  0.000000000  0.000000000

 
 Subroutine IBZKPT returns following result:
 ===========================================
 
 Found     16 irreducible k-points:
 
 Following reciprocal coordinates:
            Coordinates               Weight
  0.000000  0.000000  0.000000      1.000000
  0.166667  0.000000 -0.000000      8.000000
  0.333333  0.000000  0.000000      8.000000
  0.500000 -0.000000 -0.000000      4.000000
  0.166667  0.166667  0.000000      6.000000
  0.333333  0.166667 -0.000000     24.000000
  0.500000  0.166667  0.000000     24.000000
 -0.333333  0.166667  0.000000     24.000000
 -0.166667  0.166667 -0.000000     12.000000
  0.333333  0.333333  0.000000      6.000000
  0.500000  0.333333 -0.000000     24.000000
 -0.333333  0.333333  0.000000     12.000000
  0.500000  0.500000  0.000000      3.000000
  0.500000  0.333333  0.166667     24.000000
 -0.333333  0.333333  0.166667     24.000000
 -0.333333  0.500000  0.166667     12.000000
 
 Following cartesian coordinates:
            Coordinates               Weight
  0.000000  0.000000  0.000000      1.000000
  0.166667  0.166667 -0.166667      8.000000
  0.333333  0.333333 -0.333333      8.000000
  0.500000  0.500000 -0.500000      4.000000
  0.000000  0.333333  0.000000      6.000000
  0.166667  0.500000 -0.166667     24.000000
  0.333333  0.666667 -0.333333     24.000000
 -0.500000 -0.166667  0.500000     24.000000
 -0.333333  0.000000  0.333333     12.000000
  0.000000  0.666667  0.000000      6.000000
  0.166667  0.833333 -0.166667     24.000000
 -0.666667 -0.000000  0.666667     12.000000
 -0.000000  1.000000  0.000000      3.000000
  0.333333  0.666667  0.000000     24.000000
 -0.500000 -0.166667  0.833333     24.000000
 -0.666667 -0.000000  1.000000     12.000000
 
 
 Subroutine IBZKPT_HF returns following result:
 ==============================================
 
 Found    216 k-points in 1st BZ
 the following    216 k-points will be used (e.g. in the exchange kernel)
 Following reciprocal coordinates:   # in IRBZ
  0.000000  0.000000  0.000000    0.00462963   1 t-inv F
  0.166667  0.000000 -0.000000    0.00462963   2 t-inv F
  0.333333  0.000000  0.000000    0.00462963   3 t-inv F
  0.500000 -0.000000 -0.000000    0.00462963   4 t-inv F
  0.166667  0.166667  0.000000    0.00462963   5 t-inv F
  0.333333  0.166667 -0.000000    0.00462963   6 t-inv F
  0.500000  0.166667  0.000000    0.00462963   7 t-inv F
 -0.333333  0.166667  0.000000    0.00462963   8 t-inv F
 -0.166667  0.166667 -0.000000    0.00462963   9 t-inv F
  0.333333  0.333333  0.000000    0.00462963  10 t-inv F
  0.500000  0.333333 -0.000000    0.00462963  11 t-inv F
 -0.333333  0.333333  0.000000    0.00462963  12 t-inv F
  0.500000  0.500000  0.000000    0.00462963  13 t-inv F
  0.500000  0.333333  0.166667    0.00462963  14 t-inv F
 -0.333333  0.333333  0.166667    0.00462963  15 t-inv F
 -0.333333  0.500000  0.166667    0.00462963  16 t-inv F
 -0.166667 -0.000000  0.000000    0.00462963   2 t-inv F
 -0.000000  0.166667  0.000000    0.00462963   2 t-inv F
  0.000000 -0.166667 -0.000000    0.00462963   2 t-inv F
  0.000000 -0.000000  0.166667    0.00462963   2 t-inv F
 -0.000000  0.000000 -0.166667    0.00462963   2 t-inv F
  0.166667  0.166667  0.166667    0.00462963   2 t-inv F
 -0.166667 -0.166667 -0.166667    0.00462963   2 t-inv F
 -0.333333 -0.000000 -0.000000    0.00462963   3 t-inv F
  0.000000  0.333333  0.000000    0.00462963   3 t-inv F
 -0.000000 -0.333333 -0.000000    0.00462963   3 t-inv F
  0.000000  0.000000  0.333333    0.00462963   3 t-inv F
 -0.000000 -0.000000 -0.333333    0.00462963   3 t-inv F
  0.333333  0.333333  0.333333    0.00462963   3 t-inv F
 -0.333333 -0.333333 -0.333333    0.00462963   3 t-inv F
 -0.000000  0.500000 -0.000000    0.00462963   4 t-inv F
 -0.000000 -0.000000  0.500000    0.00462963   4 t-inv F
  0.500000  0.500000  0.500000    0.00462963   4 t-inv F
 -0.166667 -0.166667 -0.000000    0.00462963   5 t-inv F
  0.000000  0.166667  0.166667    0.00462963   5 t-inv F
 -0.000000 -0.166667 -0.166667    0.00462963   5 t-inv F
  0.166667  0.000000  0.166667    0.00462963   5 t-inv F
 -0.166667 -0.000000 -0.166667    0.00462963   5 t-inv F
 -0.333333 -0.166667  0.000000    0.00462963   6 t-inv F
 -0.000000  0.333333  0.166667    0.00462963   6 t-inv F
  0.000000 -0.333333 -0.166667    0.00462963   6 t-inv F
  0.166667 -0.000000  0.333333    0.00462963   6 t-inv F
 -0.166667  0.000000 -0.333333    0.00462963   6 t-inv F
  0.166667  0.166667 -0.166667    0.00462963   6 t-inv F
 -0.166667 -0.166667  0.166667    0.00462963   6 t-inv F
  0.333333  0.166667  0.333333    0.00462963   6 t-inv F
 -0.333333 -0.166667 -0.333333    0.00462963   6 t-inv F
  0.166667  0.333333  0.000000    0.00462963   6 t-inv F
 -0.166667 -0.333333 -0.000000    0.00462963   6 t-inv F
  0.166667 -0.166667 -0.166667    0.00462963   6 t-inv F
 -0.166667  0.166667  0.166667    0.00462963   6 t-inv F
  0.333333  0.333333  0.166667    0.00462963   6 t-inv F
 -0.333333 -0.333333 -0.166667    0.00462963   6 t-inv F
  0.000000  0.166667  0.333333    0.00462963   6 t-inv F
 -0.000000 -0.166667 -0.333333    0.00462963   6 t-inv F
 -0.166667  0.166667 -0.166667    0.00462963   6 t-inv F
  0.166667 -0.166667  0.166667    0.00462963   6 t-inv F
  0.166667  0.333333  0.333333    0.00462963   6 t-inv F
 -0.166667 -0.333333 -0.333333    0.00462963   6 t-inv F
  0.333333  0.000000  0.166667    0.00462963   6 t-inv F
 -0.333333 -0.000000 -0.166667    0.00462963   6 t-inv F
 -0.500000 -0.166667 -0.000000    0.00462963   7 t-inv F
  0.000000  0.500000  0.166667    0.00462963   7 t-inv F
 -0.000000 -0.500000 -0.166667    0.00462963   7 t-inv F
  0.166667  0.000000  0.500000    0.00462963   7 t-inv F
 -0.166667 -0.000000 -0.500000    0.00462963   7 t-inv F
  0.166667  0.166667 -0.333333    0.00462963   7 t-inv F
 -0.166667 -0.166667  0.333333    0.00462963   7 t-inv F
  0.500000  0.333333  0.500000    0.00462963   7 t-inv F
 -0.500000 -0.333333 -0.500000    0.00462963   7 t-inv F
  0.166667  0.500000 -0.000000    0.00462963   7 t-inv F
 -0.166667 -0.500000  0.000000    0.00462963   7 t-inv F
  0.333333 -0.166667 -0.166667    0.00462963   7 t-inv F
 -0.333333  0.166667  0.166667    0.00462963   7 t-inv F
  0.500000  0.500000  0.333333    0.00462963   7 t-inv F
 -0.500000 -0.500000 -0.333333    0.00462963   7 t-inv F
 -0.000000  0.166667  0.500000    0.00462963   7 t-inv F
  0.000000 -0.166667 -0.500000    0.00462963   7 t-inv F
 -0.166667  0.333333 -0.166667    0.00462963   7 t-inv F
  0.166667 -0.333333  0.166667    0.00462963   7 t-inv F
  0.333333  0.500000  0.500000    0.00462963   7 t-inv F
 -0.333333 -0.500000 -0.500000    0.00462963   7 t-inv F
  0.500000 -0.000000  0.166667    0.00462963   7 t-inv F
 -0.500000  0.000000 -0.166667    0.00462963   7 t-inv F
  0.333333 -0.166667 -0.000000    0.00462963   8 t-inv F
  0.000000 -0.333333  0.166667    0.00462963   8 t-inv F
 -0.000000  0.333333 -0.166667    0.00462963   8 t-inv F
  0.166667  0.000000 -0.333333    0.00462963   8 t-inv F
 -0.166667 -0.000000  0.333333    0.00462963   8 t-inv F
  0.166667  0.166667  0.500000    0.00462963   8 t-inv F
 -0.166667 -0.166667 -0.500000    0.00462963   8 t-inv F
 -0.333333 -0.500000 -0.333333    0.00462963   8 t-inv F
  0.333333  0.500000  0.333333    0.00462963   8 t-inv F
  0.166667 -0.333333 -0.000000    0.00462963   8 t-inv F
 -0.166667  0.333333  0.000000    0.00462963   8 t-inv F
 -0.500000 -0.166667 -0.166667    0.00462963   8 t-inv F
  0.500000  0.166667  0.166667    0.00462963   8 t-inv F
 -0.333333 -0.333333 -0.500000    0.00462963   8 t-inv F
  0.333333  0.333333  0.500000    0.00462963   8 t-inv F
 -0.000000  0.166667 -0.333333    0.00462963   8 t-inv F
  0.000000 -0.166667  0.333333    0.00462963   8 t-inv F
 -0.166667 -0.500000 -0.166667    0.00462963   8 t-inv F
  0.166667  0.500000  0.166667    0.00462963   8 t-inv F
 -0.500000 -0.333333 -0.333333    0.00462963   8 t-inv F
  0.500000  0.333333  0.333333    0.00462963   8 t-inv F
 -0.333333 -0.000000  0.166667    0.00462963   8 t-inv F
  0.333333  0.000000 -0.166667    0.00462963   8 t-inv F
  0.166667 -0.166667  0.000000    0.00462963   9 t-inv F
 -0.000000 -0.166667  0.166667    0.00462963   9 t-inv F
  0.000000  0.166667 -0.166667    0.00462963   9 t-inv F
  0.166667 -0.000000 -0.166667    0.00462963   9 t-inv F
 -0.166667  0.000000  0.166667    0.00462963   9 t-inv F
  0.166667  0.166667  0.333333    0.00462963   9 t-inv F
 -0.166667 -0.166667 -0.333333    0.00462963   9 t-inv F
 -0.166667 -0.333333 -0.166667    0.00462963   9 t-inv F
  0.166667  0.333333  0.166667    0.00462963   9 t-inv F
 -0.333333 -0.166667 -0.166667    0.00462963   9 t-inv F
  0.333333  0.166667  0.166667    0.00462963   9 t-inv F
 -0.333333 -0.333333 -0.000000    0.00462963  10 t-inv F
  0.000000  0.333333  0.333333    0.00462963  10 t-inv F
 -0.000000 -0.333333 -0.333333    0.00462963  10 t-inv F
  0.333333  0.000000  0.333333    0.00462963  10 t-inv F
 -0.333333 -0.000000 -0.333333    0.00462963  10 t-inv F
 -0.500000 -0.333333  0.000000    0.00462963  11 t-inv F
 -0.000000  0.500000  0.333333    0.00462963  11 t-inv F
  0.000000 -0.500000 -0.333333    0.00462963  11 t-inv F
  0.333333 -0.000000  0.500000    0.00462963  11 t-inv F
 -0.333333  0.000000 -0.500000    0.00462963  11 t-inv F
  0.333333  0.333333 -0.166667    0.00462963  11 t-inv F
 -0.333333 -0.333333  0.166667    0.00462963  11 t-inv F
  0.500000  0.166667  0.500000    0.00462963  11 t-inv F
 -0.500000 -0.166667 -0.500000    0.00462963  11 t-inv F
  0.333333  0.500000  0.000000    0.00462963  11 t-inv F
 -0.333333 -0.500000 -0.000000    0.00462963  11 t-inv F
  0.166667 -0.333333 -0.333333    0.00462963  11 t-inv F
 -0.166667  0.333333  0.333333    0.00462963  11 t-inv F
  0.500000  0.500000  0.166667    0.00462963  11 t-inv F
 -0.500000 -0.500000 -0.166667    0.00462963  11 t-inv F
  0.000000  0.333333  0.500000    0.00462963  11 t-inv F
 -0.000000 -0.333333 -0.500000    0.00462963  11 t-inv F
 -0.333333  0.166667 -0.333333    0.00462963  11 t-inv F
  0.333333 -0.166667  0.333333    0.00462963  11 t-inv F
  0.166667  0.500000  0.500000    0.00462963  11 t-inv F
 -0.166667 -0.500000 -0.500000    0.00462963  11 t-inv F
  0.500000  0.000000  0.333333    0.00462963  11 t-inv F
 -0.500000 -0.000000 -0.333333    0.00462963  11 t-inv F
  0.333333 -0.333333 -0.000000    0.00462963  12 t-inv F
  0.000000 -0.333333  0.333333    0.00462963  12 t-inv F
 -0.000000  0.333333 -0.333333    0.00462963  12 t-inv F
  0.333333  0.000000 -0.333333    0.00462963  12 t-inv F
 -0.333333 -0.000000  0.333333    0.00462963  12 t-inv F
  0.333333  0.333333  0.666667    0.00462963  12 t-inv F
 -0.333333 -0.333333 -0.666667    0.00462963  12 t-inv F
 -0.333333 -0.666667 -0.333333    0.00462963  12 t-inv F
  0.333333  0.666667  0.333333    0.00462963  12 t-inv F
 -0.666667 -0.333333 -0.333333    0.00462963  12 t-inv F
  0.666667  0.333333  0.333333    0.00462963  12 t-inv F
  0.000000  0.500000  0.500000    0.00462963  13 t-inv F
  0.500000  0.000000  0.500000    0.00462963  13 t-inv F
 -0.500000 -0.333333 -0.166667    0.00462963  14 t-inv F
  0.166667  0.500000  0.333333    0.00462963  14 t-inv F
 -0.166667 -0.500000 -0.333333    0.00462963  14 t-inv F
  0.333333  0.166667  0.500000    0.00462963  14 t-inv F
 -0.333333 -0.166667 -0.500000    0.00462963  14 t-inv F
  0.333333  0.166667 -0.166667    0.00462963  14 t-inv F
 -0.333333 -0.166667  0.166667    0.00462963  14 t-inv F
  0.500000  0.166667  0.333333    0.00462963  14 t-inv F
 -0.500000 -0.166667 -0.333333    0.00462963  14 t-inv F
  0.166667 -0.333333 -0.166667    0.00462963  14 t-inv F
 -0.166667  0.333333  0.166667    0.00462963  14 t-inv F
  0.166667  0.333333 -0.166667    0.00462963  14 t-inv F
 -0.166667 -0.333333  0.166667    0.00462963  14 t-inv F
  0.166667 -0.166667 -0.333333    0.00462963  14 t-inv F
 -0.166667  0.166667  0.333333    0.00462963  14 t-inv F
  0.333333  0.500000  0.166667    0.00462963  14 t-inv F
 -0.333333 -0.500000 -0.166667    0.00462963  14 t-inv F
 -0.166667  0.166667 -0.333333    0.00462963  14 t-inv F
  0.166667 -0.166667  0.333333    0.00462963  14 t-inv F
 -0.333333  0.166667 -0.166667    0.00462963  14 t-inv F
  0.333333 -0.166667  0.166667    0.00462963  14 t-inv F
  0.166667  0.333333  0.500000    0.00462963  14 t-inv F
 -0.166667 -0.333333 -0.500000    0.00462963  14 t-inv F
  0.333333 -0.333333 -0.166667    0.00462963  15 t-inv F
  0.166667 -0.333333  0.333333    0.00462963  15 t-inv F
 -0.166667  0.333333 -0.333333    0.00462963  15 t-inv F
  0.333333  0.166667 -0.333333    0.00462963  15 t-inv F
 -0.333333 -0.166667  0.333333    0.00462963  15 t-inv F
 -0.333333 -0.666667 -0.500000    0.00462963  15 t-inv F
  0.333333  0.666667  0.500000    0.00462963  15 t-inv F
  0.166667  0.500000 -0.166667    0.00462963  15 t-inv F
 -0.166667 -0.500000  0.166667    0.00462963  15 t-inv F
 -0.666667 -0.166667 -0.333333    0.00462963  15 t-inv F
  0.666667  0.166667  0.333333    0.00462963  15 t-inv F
  0.500000  0.666667  0.333333    0.00462963  15 t-inv F
 -0.500000 -0.666667 -0.333333    0.00462963  15 t-inv F
 -0.166667  0.166667  0.500000    0.00462963  15 t-inv F
  0.166667 -0.166667 -0.500000    0.00462963  15 t-inv F
 -0.333333 -0.666667 -0.166667    0.00462963  15 t-inv F
  0.333333  0.666667  0.166667    0.00462963  15 t-inv F
  0.333333  0.500000  0.666667    0.00462963  15 t-inv F
 -0.333333 -0.500000 -0.666667    0.00462963  15 t-inv F
  0.500000 -0.166667  0.166667    0.00462963  15 t-inv F
 -0.500000  0.166667 -0.166667    0.00462963  15 t-inv F
 -0.166667 -0.333333 -0.666667    0.00462963  15 t-inv F
  0.166667  0.333333  0.666667    0.00462963  15 t-inv F
  0.333333 -0.500000 -0.166667    0.00462963  16 t-inv F
  0.166667 -0.333333  0.500000    0.00462963  16 t-inv F
 -0.166667  0.333333 -0.500000    0.00462963  16 t-inv F
  0.500000  0.166667 -0.333333    0.00462963  16 t-inv F
 -0.500000 -0.166667  0.333333    0.00462963  16 t-inv F
  0.500000  0.333333  0.833333    0.00462963  16 t-inv F
 -0.500000 -0.333333 -0.833333    0.00462963  16 t-inv F
 -0.333333 -0.833333 -0.500000    0.00462963  16 t-inv F
  0.333333  0.833333  0.500000    0.00462963  16 t-inv F
  0.166667  0.500000 -0.333333    0.00462963  16 t-inv F
 -0.166667 -0.500000  0.333333    0.00462963  16 t-inv F


--------------------------------------------------------------------------------------------------------




 Dimension of arrays:
   k-points           NKPTS =     16   k-points in BZ     NKDIM =    216   number of bands    NBANDS=      6
   number of dos      NEDOS =    301   number of ions     NIONS =      1
   non local maximal  LDIM  =      4   non local SUM 2l+1 LMDIM =      8
   total plane-waves  NPLWV =   8000
   max r-space proj   IRMAX =      1   max aug-charges    IRDMAX=  18234
   dimension x,y,z NGX =    20 NGY =   20 NGZ =   20
   dimension x,y,z NGXF=    40 NGYF=   40 NGZF=   40
   support grid    NGXF=    40 NGYF=   40 NGZF=   40
   ions per type =               1
   NGX,Y,Z   is equivalent  to a cutoff of  12.06, 12.06, 12.06 a.u.
   NGXF,Y,Z  is equivalent  to a cutoff of  24.11, 24.11, 24.11 a.u.

 SYSTEM =  DFT Virtual Orbitals                    
 POSCAR =  fcc Si:                                 

 Startparameter for this run:
   NWRITE =      2    write-flag & timer
   PREC   = accura    normal or accurate (medium, high low for compatibility)
   ISTART =      1    job   : 0-new  1-cont  2-samecut
   ICHARG =      0    charge: 1-file 2-atom 10-const
   ISPIN  =      1    spin polarized calculation?
   LNONCOLLINEAR =      F non collinear calculations
   LSORBIT =      F    spin-orbit coupling
   INIWAV =      1    electr: 0-lowe 1-rand  2-diag
   LASPH  =      F    aspherical Exc in radial PAW
 Electronic Relaxation 1
   ENCUT  =  500.0 eV  36.75 Ry    6.06 a.u.   5.03  5.03  5.03*2*pi/ulx,y,z
   ENINI  =  500.0     initial cutoff
   ENAUG  =  322.1 eV  augmentation charge cutoff
   NELM   =    100;   NELMIN=  2; NELMDL=  0     # of ELM steps 
   EDIFF  = 0.1E-05   stopping-criterion for ELM
   LREAL  =      F    real-space projection
   NLSPLINE    = F    spline interpolate recip. space projectors
   LCOMPAT=      F    compatible to vasp.4.4
   GGA_COMPAT  = T    GGA compatible to vasp.4.4-vasp.4.6
   LMAXPAW     = -100 max onsite density
   LMAXMIX     =    2 max onsite mixed and CHGCAR
   VOSKOWN=      0    Vosko Wilk Nusair interpolation
   ROPT   =    0.00000
 Ionic relaxation
   EDIFFG = 0.1E-04   stopping-criterion for IOM
   NSW    =      0    number of steps for IOM
   NBLOCK =      1;   KBLOCK =      1    inner block; outer block 
   IBRION =     -1    ionic relax: 0-MD 1-quasi-New 2-CG
   NFREE  =      0    steps in history (QN), initial steepest desc. (CG)
   ISIF   =      0    stress and relaxation
   IWAVPR =     10    prediction:  0-non 1-charg 2-wave 3-comb
   ISYM   =      3    0-nonsym 1-usesym 2-fastsym
   LCORR  =      T    Harris-Foulkes like correction to forces

   POTIM  = 0.5000    time-step for ionic-motion
   TEIN   =    0.0    initial temperature
   TEBEG  =    0.0;   TEEND  =   0.0 temperature during run
   SMASS  =  -3.00    Nose mass-parameter (am)
   estimated Nose-frequenzy (Omega)   =  0.10E-29 period in steps = 0.13E+47 mass=  -0.174E-27a.u.
   SCALEE = 1.0000    scale energy and forces
   NPACO  =    256;   APACO  = 10.0  distance and # of slots for P.C.
   PSTRESS=    0.0 pullay stress

  Mass of Ions in am
   POMASS =  28.09
  Ionic Valenz
   ZVAL   =   4.00
  Atomic Wigner-Seitz radii
   RWIGS  =  -1.00
  virtual crystal weights 
   VCA    =   1.00
   NELECT =       4.0000    total number of electrons
   NUPDOWN=      -1.0000    fix difference up-down

 DOS related values:
   EMIN   =  10.00;   EMAX   =-10.00  energy-range for DOS
   EFERMI =   0.00
   ISMEAR =     1;   SIGMA  =   0.10  broadening in eV -4-tet -1-fermi 0-gaus

 Electronic relaxation 2 (details)
   IALGO  =     53    algorithm
   LDIAG  =      T    sub-space diagonalisation (order eigenvalues)
   LSUBROT=      F    optimize rotation matrix (better conditioning)
   TURBO    =      0    0=normal 1=particle mesh
   IRESTART =      0    0=no restart 2=restart with 2 vectors
   NREBOOT  =      0    no. of reboots
   NMIN     =      0    reboot dimension
   EREF     =   0.00    reference energy to select bands
   IMIX   =      4    mixing-type and parameters
     AMIX     =   0.40;   BMIX     =  1.00
     AMIX_MAG =   1.60;   BMIX_MAG =  1.00
     AMIN     =   0.10
     WC   =   100.;   INIMIX=   1;  MIXPRE=   1;  MAXMIX= -45

 Intra band minimization:
   WEIMIN = 0.0000     energy-eigenvalue tresh-hold
   EBREAK =  0.42E-07  absolut break condition
   DEPER  =   0.30     relativ break condition  

   TIME   =   0.40     timestep for ELM

  volume/ion in A,a.u.               =      14.83       100.08
  Fermi-wavevector in a.u.,A,eV,Ry     =   1.057751  1.998860 15.222711  1.118838
  Thomas-Fermi vector in A             =   2.193036
 
 Write flags
   LWAVE        =      T    write WAVECAR
   LDOWNSAMPLE  =      F    k-point downsampling of WAVECAR
   LCHARG       =      T    write CHGCAR
   LVTOT        =      F    write LOCPOT, total local potential
   LVHAR        =      F    write LOCPOT, Hartree potential only
   LELF         =      F    write electronic localiz. function (ELF)
   LORBIT       =     11    0 simple, 1 ext, 2 COOP (PROOUT), +10 PAW based schemes


 Dipole corrections
   LMONO  =      F    monopole corrections only (constant potential shift)
   LDIPOL =      F    correct potential (dipole corrections)
   IDIPOL =      0    1-x, 2-y, 3-z, 4-all directions 
   EPSILON=  1.0000000 bulk dielectric constant

 Exchange correlation treatment:
   GGA     =    --    GGA type
   LEXCH   =     8    internal setting for exchange type
   LIBXC   =     F    Libxc                    
   VOSKOWN =     0    Vosko Wilk Nusair interpolation
   EXXOEP  =     0    0=HF, 1=EXX-LHF (local Hartree Fock) 2=EXX OEP
   LHFCALC =     T    Hartree Fock is set to
   LSYMGRAD=     F    symmetrize gradient (conserves proper symmetry)
   PRECFOCK=normal    Normal, Fast or Accurate (Low or Medium for compatibility)
   LRHFCALC=     F    long range Hartree Fock
   LRSCOR  =     F    long range correlation only (use DFT for short range part)
   LTHOMAS =     F    Thomas Fermi screening in HF
   LMODELHF=     F    short range full HF, long range fraction AEXX
   FOCKCORR=     1    mode to apply convergence corrections
   LFOCKACE=     T    use Adeptively-Compressed-Exchange operator
   ENCUT4O =  -1.0   cutoff for four orbital integrals eV
   LMAXFOCK=     4    L truncation for augmentation on plane wave grid
   LMAXFOCKAE=  -1    L truncation for all-electron charge restoration on plane wave grid
   NMAXFOCKAE=   1    number of basis functions for all-electron charge restoration
   LFOCKAEDFT=     F  apply the AE augmentation even for DFT
   NKREDX  =     1    reduce k-point grid by
   NKREDY  =     1    reduce k-point grid by
   NKREDZ  =     1    reduce k-point grid by
   SHIFTRED=     F    shift reduced grid of Gamma
   HFKIDENT=     F    idential grid for each k-point
   ODDONLY =     F    use only odd q-grid points
   EVENONLY=     F    use only even q-grid points
   HFALPHA =   -1.0000 decay constant for conv. correction
   MCALPHA =    0.0000 extent of test-charge in conv. correction in multipole expansion
   AEXX    =    0.2500 exact exchange contribution
   HFSCREEN=    0.2000 screening length (either q_TF or 0.3 A-1)
   HFSCREENC=   0.2000 screening length for correlation (either q_TF or 0.3 A-1)
   HFRCUT  =    0.0000 spherical cutoff for potential kernel
   ALDAX   =    0.7500 LDA exchange part
   AGGAX   =    0.7500 GGA exchange part
   ALDAC   =    1.0000 LDA correlation
   AGGAC   =    1.0000 GGA correlation
   ENCUTFOCK=  -1.0 apply spherical cutoff to Coloumb kernel
   NBANDSGWLOW=     1    first orbital included in HF term
   NBLOCK_FOCK=    64    blocking factor in FOCK_ACC

 Linear response parameters
   LEPSILON=     F    determine dielectric tensor
   LRPA    =     F    only Hartree local field effects (RPA)
   LNABLA  =     F    use nabla operator in PAW spheres
   LVEL    =     F    velocity operator in full k-point grid
   CSHIFT  =0.1000    complex shift for real part using Kramers Kronig
   OMEGAMAX=  -1.0    maximum frequency
   DEG_THRESHOLD= 0.2000000E-02 threshold for treating states as degnerate
   RTIME   =   -0.100 relaxation time in fs
  (WPLASMAI=    0.000 imaginary part of plasma frequency in eV, 0.658/RTIME)
   DFIELD  = 0.0000000 0.0000000 0.0000000 field for delta impulse in time
 
  Optional k-point grid parameters
   LKPOINTS_OPT  =     F    use optional k-point grid
   KPOINTS_OPT_MODE=     1    mode for optional k-point grid
 
 Orbital magnetization related:
   ORBITALMAG=     F  switch on orbital magnetization
   LCHIMAG   =     F  perturbation theory with respect to B field
   DQ        =  0.001000  dq finite difference perturbation B field
   LLRAUG    =     F  two centre corrections for induced B field



--------------------------------------------------------------------------------------------------------


 Static calculation
 charge density and potential will be updated during run
 non-spin polarized calculation
 Conjugate gradient for all bands (Freysoldt, et al. PRB 79, 241103 (2009))
 perform sub-space diagonalisation
    before iterative eigenvector-optimisation
 modified Broyden-mixing scheme, WC =      100.0
 initial mixing is a Kerker type mixing with AMIX =  0.4000 and BMIX =      1.0000
 Hartree-type preconditioning will be used
 using additional bands            4
 reciprocal scheme for non local part
 use partial core corrections
 no Harris-corrections to forces 
 use gradient corrections 
 use of overlap-Matrix (Vanderbilt PP)
 Methfessel and Paxton  Order N= 1 SIGMA  =   0.10


--------------------------------------------------------------------------------------------------------


  energy-cutoff  :      500.00
  volume of cell :       14.83
      direct lattice vectors                 reciprocal lattice vectors
     1.950000000  1.950000000  0.000000000     0.256410256  0.256410256 -0.256410256
     0.000000000  1.950000000  1.950000000    -0.256410256  0.256410256  0.256410256
     1.950000000  0.000000000  1.950000000     0.256410256 -0.256410256  0.256410256

  length of vectors
     2.757716447  2.757716447  2.757716447     0.444115592  0.444115592  0.444115592


 
 old parameters found on file WAVECAR:
  energy-cutoff  :      500.00
  volume of cell :       14.83
      direct lattice vectors                 reciprocal lattice vectors
     1.950000000  1.950000000  0.000000000     0.256410256  0.256410256 -0.256410256
     0.000000000  1.950000000  1.950000000    -0.256410256  0.256410256  0.256410256
     1.950000000  0.000000000  1.950000000     0.256410256 -0.256410256  0.256410256

  length of vectors

 
 k-points in units of 2pi/SCALE and weight: read from INCAR                         
   0.00000000  0.00000000  0.00000000       0.005
   0.16666667  0.16666667 -0.16666667       0.037
   0.33333333  0.33333333 -0.33333333       0.037
   0.50000000  0.50000000 -0.50000000       0.019
   0.00000000  0.33333333  0.00000000       0.028
   0.16666667  0.50000000 -0.16666667       0.111
   0.33333333  0.66666667 -0.33333333       0.111
  -0.50000000 -0.16666667  0.50000000       0.111
  -0.33333333  0.00000000  0.33333333       0.056
   0.00000000  0.66666667  0.00000000       0.028
   0.16666667  0.83333333 -0.16666667       0.111
  -0.66666667 -0.00000000  0.66666667       0.056
   0.00000000  1.00000000 -0.00000000       0.014
   0.33333333  0.66666667  0.00000000       0.111
  -0.50000000 -0.16666667  0.83333333       0.111
  -0.66666667 -0.00000000  1.00000000       0.056
 
 k-points in reciprocal lattice and weights: read from INCAR                         
   0.00000000  0.00000000  0.00000000       0.005
   0.16666667  0.00000000 -0.00000000       0.037
   0.33333333  0.00000000  0.00000000       0.037
   0.50000000 -0.00000000 -0.00000000       0.019
   0.16666667  0.16666667  0.00000000       0.028
   0.33333333  0.16666667 -0.00000000       0.111
   0.50000000  0.16666667  0.00000000       0.111
  -0.33333333  0.16666667  0.00000000       0.111
  -0.16666667  0.16666667 -0.00000000       0.056
   0.33333333  0.33333333  0.00000000       0.028
   0.50000000  0.33333333 -0.00000000       0.111
  -0.33333333  0.33333333  0.00000000       0.056
   0.50000000  0.50000000  0.00000000       0.014
   0.50000000  0.33333333  0.16666667       0.111
  -0.33333333  0.33333333  0.16666667       0.111
  -0.33333333  0.50000000  0.16666667       0.056
 
 position of ions in fractional coordinates (direct lattice) 
   0.00000000  0.00000000  0.00000000
 
 position of ions in cartesian coordinates  (Angst):
   0.00000000  0.00000000  0.00000000
 


--------------------------------------------------------------------------------------------------------


 k-point   1 :   0.0000 0.0000 0.0000  plane waves:     339
 k-point   2 :   0.1667 0.0000-0.0000  plane waves:     362
 k-point   3 :   0.3333 0.0000 0.0000  plane waves:     359
 k-point   4 :   0.5000-0.0000-0.0000  plane waves:     368
 k-point   5 :   0.1667 0.1667 0.0000  plane waves:     367
 k-point   6 :   0.3333 0.1667-0.0000  plane waves:     375
 k-point   7 :   0.5000 0.1667 0.0000  plane waves:     381
 k-point   8 :  -0.3333 0.1667 0.0000  plane waves:     383
 k-point   9 :  -0.1667 0.1667-0.0000  plane waves:     371
 k-point  10 :   0.3333 0.3333 0.0000  plane waves:     379
 k-point  11 :   0.5000 0.3333-0.0000  plane waves:     376
 k-point  12 :  -0.3333 0.3333 0.0000  plane waves:     383
 k-point  13 :   0.5000 0.5000 0.0000  plane waves:     388
 k-point  14 :   0.5000 0.3333 0.1667  plane waves:     376
 k-point  15 :  -0.3333 0.3333 0.1667  plane waves:     384
 k-point  16 :  -0.3333 0.5000 0.1667  plane waves:     382

 maximum and minimum number of plane-waves per node :       388      339

 maximum number of plane-waves:       388
 maximum index in each direction: 
   IXMAX=    5   IYMAX=    4   IZMAX=    5
   IXMIN=   -5   IYMIN=   -5   IZMIN=   -5


 serial   3D FFT for wavefunctions
 parallel 3D FFT for charge:
    minimum data exchange during FFTs selected (reduces bandwidth)


 FFT grid for exact exchange (Hartree Fock) 
  NGX = 16; NGY = 16; NGZ = 16

 
 Radii for the augmentation spheres in the non-local exchange
 for species   1 augmentation radius   1.055 (default was   0.989)
       energy cutoff for augmentation   2000.0
 Maximum index for augmentation-charges in exchange         1409
  SETUP_FOCK is finished

 total amount of memory used by VASP MPI-rank0    38153. kBytes
=======================================================================

   base      :      30000. kBytes
   nonl-proj :        403. kBytes
   fftplans  :       2284. kBytes
   grid      :       3500. kBytes
   one-center:          3. kBytes
   HF        :          4. kBytes
   nonlr-proj:        135. kBytes
   wavefun   :       1824. kBytes
 
     INWAV:  cpu time      0.0018: real time      0.0024
 Broyden mixing: mesh for mixing (old mesh)
   NGX =  9   NGY =  9   NGZ =  9
  (NGX  = 40   NGY  = 40   NGZ  = 40)
  gives a total of    729 points

 charge density for first step will be calculated from the start-wavefunctions


--------------------------------------------------------------------------------------------------------


 Maximum index for augmentation-charges        17549 (set IRDMAX)


--------------------------------------------------------------------------------------------------------


 initial charge from wavefunction
 First call to EWALD:  gamma=   0.721
 Maximum number of real-space cells 3x 3x 3
 Maximum number of reciprocal cells 3x 3x 3

    FEWALD:  cpu time      0.0003: real time      0.0003


--------------------------------------- Iteration      1(   1)  ---------------------------------------


    POTLOK:  cpu time      0.0529: real time      0.0530
    SETDIJ:  cpu time      0.0123: real time      0.0123
    TRIAL :  cpu time      2.1493: real time      2.1499
    CORREC:  cpu time      0.0002: real time      0.0002
    CHARGE:  cpu time      0.0240: real time      0.0240
    --------------------------------------------
      LOOP:  cpu time      2.2394: real time      2.2441

 eigenvalue-minimisations  :     0
 total energy-change (2. order) :-0.5768032E+01  (-0.5582276E-13)
 number of electron       4.0000000 magnetization 
 augmentation part       -0.2302773 magnetization 

 Free energy of the ion-electron system (eV)
  ---------------------------------------------------
  alpha Z        PSCENC =         2.26996938
  Ewald energy   TEWEN  =      -135.42777035
  -Hartree energ DENC   =        -0.44617555
  -exchange      EXHF   =         5.38801679
  -V(xc)+E(xc)   XCENC  =        -7.09498242
  PAW double counting   =        30.40461623      -16.46672412
  entropy T*S    EENTRO =         0.00002973
  eigenvalues    EBANDS =        13.90433219
  atomic energy  EATOM  =       101.70065652
  ---------------------------------------------------
  free energy    TOTEN  =        -5.76803161 eV

  energy without entropy =       -5.76806134  energy(sigma->0) =       -5.76804152
  exchange ACFDT corr.  =        -0.00069243  see jH, gK, PRB 81, 115126


--------------------------------------------------------------------------------------------------------




--------------------------------------- Iteration      1(   2)  ---------------------------------------


    POTLOK:  cpu time      0.0511: real time      0.0511
    SETDIJ:  cpu time      0.0119: real time      0.0119
    TRIAL :  cpu time      2.1186: real time      2.1192
    CORREC:  cpu time      0.0002: real time      0.0002
    EDDIAG:  cpu time      2.1542: real time      2.1547
    CHARGE:  cpu time      0.0240: real time      0.0240
    --------------------------------------------
      LOOP:  cpu time      4.3600: real time      4.3611

 eigenvalue-minimisations  :     0
 total energy-change (2. order) :-0.1026592E-09  (-0.3282958E-13)
 number of electron       4.0000000 magnetization 
 augmentation part       -0.2302773 magnetization 

 Free energy of the ion-electron system (eV)
  ---------------------------------------------------
  alpha Z        PSCENC =         2.26996938
  Ewald energy   TEWEN  =      -135.42777035
  -Hartree energ DENC   =        -0.44617555
  -exchange      EXHF   =         5.38801679
  -V(xc)+E(xc)   XCENC  =        -7.09498242
  PAW double counting   =        30.40461622      -16.46672411
  entropy T*S    EENTRO =         0.00002973
  eigenvalues    EBANDS =        13.90433219
  atomic energy  EATOM  =       101.70065652
  ---------------------------------------------------
  free energy    TOTEN  =        -5.76803161 eV

  energy without entropy =       -5.76806134  energy(sigma->0) =       -5.76804152
  exchange ACFDT corr.  =        -0.00069243  see jH, gK, PRB 81, 115126


--------------------------------------------------------------------------------------------------------


  average scaling for gradient   0.9758


 average (electrostatic) potential at core
  the test charge radii are     0.9892
  (the norm of the test charge is              1.0000)
       1 -76.6751
 
 
 
 E-fermi :   9.6268     XC(G=0):  -9.1173     alpha+bet :-16.1732

 Fermi energy:         9.6267623901

 k-point     1 :       0.0000    0.0000    0.0000
  band No.  band energies     occupation 
      1      -6.2388      2.00000
      2      21.8183      0.00000
      3      21.8183      0.00000
      4      21.8183      0.00000
      5      22.7384      0.00000
      6      22.7384      0.00000

 k-point     2 :       0.1667    0.0000   -0.0000
  band No.  band energies     occupation 
      1      -5.3607      2.00000
      2      15.1073      0.00000
      3      20.0436      0.00000
      4      20.0436      0.00000
      5      23.9534      0.00000
      6      24.9936      0.00000

 k-point     3 :       0.3333    0.0000    0.0000
  band No.  band energies     occupation 
      1      -2.7345      2.00000
      2       7.7803      2.00000
      3      19.1587      0.00000
      4      19.1587      0.00000
      5      22.9606      0.00000
      6      23.7133      0.00000

 k-point     4 :       0.5000   -0.0000   -0.0000
  band No.  band energies     occupation 
      1       1.2508      2.00000
      2       2.0828      2.00000
      3      19.1415      0.00000
      4      19.1415      0.00000
      5      21.6002      0.00000
      6      21.6002      0.00000

 k-point     5 :       0.1667    0.1667    0.0000
  band No.  band energies     occupation 
      1      -5.0680      2.00000
      2      17.4645      0.00000
      3      17.4645      0.00000
      4      19.1558      0.00000
      5      19.4389      0.00000
      6      22.8701      0.00000

 k-point     6 :       0.3333    0.1667   -0.0000
  band No.  band energies     occupation 
      1      -3.0244      2.00000
      2      10.8283     -0.00000
      3      16.2055      0.00000
      4      16.8628      0.00000
      5      19.1361      0.00000
      6      23.7077      0.00000

 k-point     7 :       0.5000    0.1667    0.0000
  band No.  band energies     occupation 
      1       0.7395      2.00000
      2       4.3256      2.00000
      3      14.3284      0.00000
      4      16.4281      0.00000
      5      19.2199      0.00000
      6      25.6450      0.00000

 k-point     8 :      -0.3333    0.1667    0.0000
  band No.  band energies     occupation 
      1      -0.7000      2.00000
      2       6.3280      2.00000
      3      13.0644      0.00000
      4      18.0664      0.00000
      5      20.9982      0.00000
      6      24.5984      0.00000

 k-point     9 :      -0.1667    0.1667   -0.0000
  band No.  band energies     occupation 
      1      -3.8998      2.00000
      2      12.8808      0.00000
      3      13.7135      0.00000
      4      20.7059      0.00000
      5      24.0805      0.00000
      6      24.8604      0.00000

 k-point    10 :       0.3333    0.3333    0.0000
  band No.  band energies     occupation 
      1      -1.5669      2.00000
      2      12.1587     -0.00000
      3      14.4270      0.00000
      4      14.4270      0.00000
      5      15.8464      0.00000
      6      18.3076      0.00000

 k-point    11 :       0.5000    0.3333   -0.0000
  band No.  band energies     occupation 
      1       1.6238      2.00000
      2       8.2391      2.00000
      3       8.9718      2.00000
      4      14.1623      0.00000
      5      16.7441      0.00000
      6      21.8901      0.00000

 k-point    12 :      -0.3333    0.3333    0.0000
  band No.  band energies     occupation 
      1       3.0408      2.00000
      2       6.1080      2.00000
      3       7.2323      2.00000
      4      15.4367      0.00000
      5      18.1761      0.00000
      6      28.2835      0.00000

 k-point    13 :       0.5000    0.5000    0.0000
  band No.  band energies     occupation 
      1       3.8159      2.00000
      2       4.7339      2.00000
      3      13.3736      0.00000
      4      13.3736      0.00000
      5      14.6903      0.00000
      6      17.1943      0.00000

 k-point    14 :       0.5000    0.3333    0.1667
  band No.  band energies     occupation 
      1      -0.4047      2.00000
      2       9.5108      2.06951
      3      10.4861     -0.00000
      4      13.4618      0.00000
      5      22.5389      0.00000
      6      23.2108      0.00000

 k-point    15 :      -0.3333    0.3333    0.1667
  band No.  band energies     occupation 
      1       3.6101      2.00000
      2       4.3204      2.00000
      3      10.5129     -0.00000
      4      11.4072     -0.00000
      5      23.1114      0.00000
      6      24.3448      0.00000

 k-point    16 :      -0.3333    0.5000    0.1667
  band No.  band energies     occupation 
      1       4.9658      2.00000
      2       5.8476      2.00000
      3       8.3654      2.00000
      4       9.6049      1.36099
      5      21.5368      0.00000
      6      22.5001      0.00000


--------------------------------------------------------------------------------------------------------


 soft charge-density along one line, spin component           1
         0         1         2         3         4         5         6         7         8         9
 total charge-density along one line
 
 pseudopotential strength for first ion, spin component:           1
 17.462  -0.003  -0.000  -0.000   0.000  -0.000  -0.000  -0.000
 -0.003   0.005  -0.000  -0.000  -0.000   0.000   0.000   0.000
 -0.000  -0.000   3.996  -0.000  -0.000  -0.004   0.000   0.000
 -0.000  -0.000  -0.000   3.996  -0.000   0.000  -0.004   0.000
  0.000  -0.000  -0.000  -0.000   3.996   0.000   0.000  -0.004
 -0.000   0.000  -0.004   0.000   0.000   0.005  -0.000  -0.000
 -0.000   0.000   0.000  -0.004   0.000  -0.000   0.005  -0.000
 -0.000   0.000   0.000   0.000  -0.004  -0.000  -0.000   0.005
 total augmentation occupancy for first ion, spin component:           1
  1.630  -0.785  -0.000  -0.000  -0.000  -0.000  -0.000  -0.000
 -0.785   1.257  -0.000  -0.000  -0.000   0.000   0.000   0.000
 -0.000  -0.000   0.742  -0.000   0.000  -0.555   0.000  -0.000
 -0.000  -0.000  -0.000   0.742   0.000   0.000  -0.555  -0.000
 -0.000  -0.000   0.000   0.000   0.742  -0.000   0.000  -0.555
 -0.000   0.000  -0.555   0.000  -0.000   0.503  -0.000   0.000
 -0.000   0.000   0.000  -0.555   0.000  -0.000   0.503   0.000
 -0.000   0.000  -0.000  -0.000  -0.555   0.000   0.000   0.503


------------------------ aborting loop because EDIFF is reached ----------------------------------------





 total charge

# of ion       s       p       d       tot
------------------------------------------
    1        0.818   0.703   0.000   1.520
 
    FORLOC:  cpu time      0.0007: real time      0.0007
    FORHF :  cpu time      2.3962: real time      2.3968
    FORNL :  cpu time      0.0042: real time      0.0042
    FORCOR:  cpu time      0.0625: real time      0.0625
    OFIELD:  cpu time      0.0001: real time      0.0001

 VOLUME and BASIS-vectors are now :
 -----------------------------------------------------------------------------
  energy-cutoff  :      500.00
  volume of cell :       14.83
      direct lattice vectors                 reciprocal lattice vectors
     1.950000000  1.950000000  0.000000000     0.256410256  0.256410256 -0.256410256
     0.000000000  1.950000000  1.950000000    -0.256410256  0.256410256  0.256410256
     1.950000000  0.000000000  1.950000000     0.256410256 -0.256410256  0.256410256

  length of vectors
     2.757716447  2.757716447  2.757716447     0.444115592  0.444115592  0.444115592


 FORCES acting on ions:
    Electron-Ion                     Ewald-Force                    Non-Local-Force
 -----------------------------------------------------------------------------------------------
   0.179E-08 0.213E-08 0.124E-08   -.162E-15 0.162E-15 0.172E-15   -.273E-24 -.180E-23 0.138E-23
 -----------------------------------------------------------------------------------------------
   -.216E-04 -.211E-04 -.175E-04   -.162E-15 0.162E-15 0.172E-15   -.273E-24 -.180E-23 0.138E-23
 
 
 POSITION                                       TOTAL-FORCE (eV/Angst)
 -----------------------------------------------------------------------------------
      0.00000      0.00000      0.00000        -0.000000      0.000000      0.000000
 -----------------------------------------------------------------------------------
    total drift:                               -0.000022     -0.000021     -0.000018


--------------------------------------------------------------------------------------------------------



  FREE ENERGIE OF THE ION-ELECTRON SYSTEM (eV)
  ---------------------------------------------------
  free  energy   TOTEN  =        -5.76803161 eV

  energy  without entropy=       -5.76806134  energy(sigma->0) =       -5.76804152
 


--------------------------------------------------------------------------------------------------------


    POTLOK:  cpu time      0.0631: real time      0.0631


--------------------------------------------------------------------------------------------------------


 writing wavefunctions
     LOOP+:  cpu time      9.1697: real time      9.2939
    4ORBIT:  cpu time      0.0000: real time      0.0000



 total charge

# of ion       s       p       d       tot
------------------------------------------
    1        0.818   0.703   0.000   1.520
 

 total amount of memory used by VASP MPI-rank0    39088. kBytes
=======================================================================

   base      :      30000. kBytes
   nonl-proj :        403. kBytes
   fftplans  :       2284. kBytes
   grid      :       3500. kBytes
   one-center:          3. kBytes
   HF        :          4. kBytes
   nonlr-proj:        207. kBytes
   wavefun   :       1824. kBytes
   fock_wrk  :        863. kBytes
 
  
  
 General timing and accounting informations for this job:
 ========================================================
  
                  Total CPU time used (sec):       10.685
                            User time (sec):       10.465
                          System time (sec):        0.220
                         Elapsed time (sec):       11.569
  
                   Maximum memory used (kb):      288212.
                   Average memory used (kb):          N/A
  
                          Minor page faults:        42686
                          Major page faults:            0
                 Voluntary context switches:         1441
