<?xml version="1.0" encoding="ISO-8859-1"?>
<modeling>
 <generator>
  <i name="program" type="string">vasp </i>
  <i name="version" type="string">6.3.2  </i>
  <i name="subversion" type="string">27Jun22 (build Dec 02 2024 22:47:12) complex                          parallel </i>
  <i name="platform" type="string">LinuxIFC </i>
  <i name="date" type="string">2024 12 20 </i>
  <i name="time" type="string">12:34:11 </i>
 </generator>
 <incar>
  <i type="string" name="SYSTEM">DFT Virtual Orbitals</i>
  <i type="string" name="PREC">Accurate</i>
  <i type="string" name="ALGO">D</i>
  <i type="int" name="NELM">   100</i>
  <i type="int" name="IBRION">    -1</i>
  <i name="EDIFF">      0.00000100</i>
  <i type="int" name="NSW">     0</i>
  <i name="ENCUT">    500.00000000</i>
  <i type="int" name="ISMEAR">     1</i>
  <i name="SIGMA">      0.10000000</i>
  <i type="int" name="LORBIT">    11</i>
  <i name="HFSCREEN">      0.20000000</i>
  <i type="logical" name="LHFCALC"> T  </i>
 </incar>
 <primitive_cell>
  <structure name="primitive_cell" >
   <crystal>
    <varray name="basis" >
     <v>       1.95000000       1.95000000       0.00000000 </v>
     <v>       0.00000000       1.95000000       1.95000000 </v>
     <v>       1.95000000       0.00000000       1.95000000 </v>
    </varray>
    <i name="volume">     14.82975000 </i>
    <varray name="rec_basis" >
     <v>       0.25641026       0.25641026      -0.25641026 </v>
     <v>      -0.25641026       0.25641026       0.25641026 </v>
     <v>       0.25641026      -0.25641026       0.25641026 </v>
    </varray>
   </crystal>
   <varray name="positions" >
    <v>       0.00000000       0.00000000       0.00000000 </v>
   </varray>
  </structure>
  <varray name="primitive_index" >
   <v type="int" >        1 </v>
  </varray>
 </primitive_cell>
 <kpoints>
  <generation param="Gamma">
   <v type="int" name="divisions">       6        6        6 </v>
   <v name="usershift">      0.00000000       0.00000000       0.00000000 </v>
   <v name="genvec1">      0.16666667      -0.00000000      -0.00000000 </v>
   <v name="genvec2">     -0.00000000       0.16666667       0.00000000 </v>
   <v name="genvec3">      0.00000000       0.00000000       0.16666667 </v>
   <v name="shift">      0.00000000       0.00000000       0.00000000 </v>
  </generation>
  <varray name="kpointlist" >
   <v>       0.00000000       0.00000000       0.00000000 </v>
   <v>       0.16666667       0.00000000      -0.00000000 </v>
   <v>       0.33333333       0.00000000       0.00000000 </v>
   <v>       0.50000000      -0.00000000      -0.00000000 </v>
   <v>       0.16666667       0.16666667       0.00000000 </v>
   <v>       0.33333333       0.16666667      -0.00000000 </v>
   <v>       0.50000000       0.16666667       0.00000000 </v>
   <v>      -0.33333333       0.16666667       0.00000000 </v>
   <v>      -0.16666667       0.16666667      -0.00000000 </v>
   <v>       0.33333333       0.33333333       0.00000000 </v>
   <v>       0.50000000       0.33333333      -0.00000000 </v>
   <v>      -0.33333333       0.33333333       0.00000000 </v>
   <v>       0.50000000       0.50000000       0.00000000 </v>
   <v>       0.50000000       0.33333333       0.16666667 </v>
   <v>      -0.33333333       0.33333333       0.16666667 </v>
   <v>      -0.33333333       0.50000000       0.16666667 </v>
  </varray>
  <varray name="weights" >
   <v>       0.00462963 </v>
   <v>       0.03703704 </v>
   <v>       0.03703704 </v>
   <v>       0.01851852 </v>
   <v>       0.02777778 </v>
   <v>       0.11111111 </v>
   <v>       0.11111111 </v>
   <v>       0.11111111 </v>
   <v>       0.05555556 </v>
   <v>       0.02777778 </v>
   <v>       0.11111111 </v>
   <v>       0.05555556 </v>
   <v>       0.01388889 </v>
   <v>       0.11111111 </v>
   <v>       0.11111111 </v>
   <v>       0.05555556 </v>
  </varray>
 </kpoints>
 <parameters>
  <separator name="general" >
   <i type="string" name="SYSTEM">DFT Virtual Orbitals</i>
   <i type="logical" name="LCOMPAT"> F  </i>
  </separator>
  <separator name="electronic" >
   <i type="string" name="PREC">accura</i>
   <i name="ENMAX">    500.00000000</i>
   <i name="ENAUG">    322.06900000</i>
   <i name="EDIFF">      0.00000100</i>
   <i type="int" name="IALGO">    53</i>
   <i type="int" name="IWAVPR">    10</i>
   <i type="int" name="NBANDS">     6</i>
   <i type="int" name="NBANDSLOW">    -1</i>
   <i type="int" name="NBANDSHIGH">    -1</i>
   <i name="NELECT">      4.00000000</i>
   <i type="int" name="TURBO">     0</i>
   <i type="int" name="IRESTART">     0</i>
   <i type="int" name="NREBOOT">     0</i>
   <i type="int" name="NMIN">     0</i>
   <i name="EREF">      0.00000000</i>
   <separator name="electronic smearing" >
    <i type="int" name="ISMEAR">     1</i>
    <i name="SIGMA">      0.10000000</i>
    <i name="KSPACING">      0.50000000</i>
    <i type="logical" name="KGAMMA"> T  </i>
    <i type="logical" name="KBLOWUP"> T  </i>
   </separator>
   <separator name="electronic projectors" >
    <i type="logical" name="LREAL"> F  </i>
    <v name="ROPT">      0.00000000</v>
    <i type="int" name="LMAXPAW">  -100</i>
    <i type="int" name="LMAXMIX">     2</i>
    <i type="logical" name="NLSPLINE"> F  </i>
   </separator>
   <separator name="electronic startup" >
    <i type="int" name="ISTART">     1</i>
    <i type="int" name="ICHARG">     0</i>
    <i type="int" name="INIWAV">     1</i>
   </separator>
   <separator name="electronic spin" >
    <i type="int" name="ISPIN">     1</i>
    <i type="logical" name="LNONCOLLINEAR"> F  </i>
    <v name="MAGMOM">      1.00000000</v>
    <i name="NUPDOWN">     -1.00000000</i>
    <i type="logical" name="LSORBIT"> F  </i>
    <v name="SAXIS">      0.00000000      0.00000000      1.00000000</v>
    <i type="logical" name="LSPIRAL"> F  </i>
    <v name="QSPIRAL">      0.00000000      0.00000000      0.00000000</v>
    <i type="logical" name="LZEROZ"> F  </i>
   </separator>
   <separator name="electronic exchange-correlation" >
    <i type="logical" name="LASPH"> F  </i>
    <i type="logical" name="LMETAGGA"> F  </i>
   </separator>
   <separator name="electronic convergence" >
    <i type="int" name="NELM">   100</i>
    <i type="int" name="NELMDL">     0</i>
    <i type="int" name="NELMIN">     2</i>
    <i name="ENINI">    500.00000000</i>
    <separator name="electronic convergence detail" >
     <i type="logical" name="LDIAG"> T  </i>
     <i type="logical" name="LSUBROT"> F  </i>
     <i name="WEIMIN">      0.00000000</i>
     <i name="EBREAK">      0.00000004</i>
     <i name="DEPER">      0.30000000</i>
     <i type="int" name="NRMM">     4</i>
     <i name="TIME">      0.40000000</i>
    </separator>
   </separator>
   <separator name="electronic mixer" >
    <i name="AMIX">      0.40000000</i>
    <i name="BMIX">      1.00000000</i>
    <i name="AMIN">      0.10000000</i>
    <i name="AMIX_MAG">      1.60000000</i>
    <i name="BMIX_MAG">      1.00000000</i>
    <separator name="electronic mixer details" >
     <i type="int" name="IMIX">     4</i>
     <i type="logical" name="MIXFIRST"> F  </i>
     <i type="int" name="MAXMIX">   -45</i>
     <i name="WC">    100.00000000</i>
     <i type="int" name="INIMIX">     1</i>
     <i type="int" name="MIXPRE">     1</i>
     <i type="int" name="MREMOVE">     5</i>
    </separator>
   </separator>
   <separator name="electronic dipolcorrection" >
    <i type="logical" name="LDIPOL"> F  </i>
    <i type="logical" name="LMONO"> F  </i>
    <i type="int" name="IDIPOL">     0</i>
    <i name="EPSILON">      1.00000000</i>
    <v name="DIPOL">   -100.00000000   -100.00000000   -100.00000000</v>
    <i name="EFIELD">      0.00000000</i>
   </separator>
  </separator>
  <separator name="grids" >
   <i type="int" name="NGX">    20</i>
   <i type="int" name="NGY">    20</i>
   <i type="int" name="NGZ">    20</i>
   <i type="int" name="NGXF">    40</i>
   <i type="int" name="NGYF">    40</i>
   <i type="int" name="NGZF">    40</i>
   <i type="logical" name="ADDGRID"> F  </i>
  </separator>
  <separator name="ionic" >
   <i type="int" name="NSW">     0</i>
   <i type="int" name="IBRION">    -1</i>
   <i type="int" name="MDALGO">     0</i>
   <i type="int" name="ISIF">     0</i>
   <i name="PSTRESS">      0.00000000</i>
   <i name="EDIFFG">      0.00001000</i>
   <i type="int" name="NFREE">     0</i>
   <i name="POTIM">      0.50000000</i>
   <i name="SMASS">     -3.00000000</i>
   <i name="SCALEE">      1.00000000</i>
  </separator>
  <separator name="ionic md" >
   <i name="TEBEG">      0.00010000</i>
   <i name="TEEND">      0.00010000</i>
   <i type="int" name="NBLOCK">     1</i>
   <i type="int" name="KBLOCK">     1</i>
   <i type="int" name="NPACO">   256</i>
   <i name="APACO">     10.00000000</i>
  </separator>
  <separator name="symmetry" >
   <i type="int" name="ISYM">     3</i>
   <i name="SYMPREC">      0.00001000</i>
  </separator>
  <separator name="dos" >
   <i type="int" name="LORBIT">    11</i>
   <v name="RWIGS">     -1.00000000</v>
   <i type="int" name="NEDOS">   301</i>
   <i name="EMIN">     10.00000000</i>
   <i name="EMAX">    -10.00000000</i>
   <i name="EFERMI">      0.00000000</i>
  </separator>
  <separator name="writing" >
   <i type="int" name="NWRITE">     2</i>
   <i type="logical" name="LWAVE"> T  </i>
   <i type="logical" name="LDOWNSAMPLE"> F  </i>
   <i type="logical" name="LCHARG"> T  </i>
   <i type="logical" name="LPARD"> F  </i>
   <i type="logical" name="LVTOT"> F  </i>
   <i type="logical" name="LVHAR"> F  </i>
   <i type="logical" name="LELF"> F  </i>
   <i type="logical" name="LOPTICS"> F  </i>
   <v name="STM">      0.00000000      0.00000000      0.00000000      0.00000000      0.00000000      0.00000000      0.00000000</v>
  </separator>
  <separator name="performance" >
   <i type="int" name="NPAR">     1</i>
   <i type="int" name="NSIM">     4</i>
   <i type="int" name="NBLK">    -1</i>
   <i type="logical" name="LPLANE"> T  </i>
   <i type="logical" name="LSCALAPACK"> T  </i>
   <i type="logical" name="LSCAAWARE"> F  </i>
   <i type="logical" name="LSCALU"> F  </i>
   <i type="logical" name="LASYNC"> F  </i>
   <i type="logical" name="LORBITALREAL"> F  </i>
  </separator>
  <separator name="miscellaneous" >
   <i type="int" name="IDIOT">     3</i>
   <i type="int" name="PHON_NSTRUCT">    -1</i>
   <i type="logical" name="LMUSIC"> F  </i>
   <v name="POMASS">     28.08500000</v>
   <v name="DARWINR">      0.00000000</v>
   <v name="DARWINV">      1.00000000</v>
   <i type="logical" name="LCORR"> T  </i>
  </separator>
  <i type="logical" name="GGA_COMPAT"> T  </i>
  <i type="logical" name="LBERRY"> F  </i>
  <i type="int" name="ICORELEVEL">     0</i>
  <i type="logical" name="LDAU"> F  </i>
  <i type="int" name="I_CONSTRAINED_M">     0</i>
  <separator name="electronic exchange-correlation" >
   <i type="string" name="GGA">--</i>
   <i type="int" name="VOSKOWN">     0</i>
   <i type="logical" name="LHFCALC"> T  </i>
   <i type="string" name="PRECFOCK">normal</i>
   <i type="logical" name="LSYMGRAD"> F  </i>
   <i type="logical" name="LHFONE"> F  </i>
   <i type="logical" name="LRHFCALC"> F  </i>
   <i type="logical" name="LTHOMAS"> F  </i>
   <i type="logical" name="LMODELHF"> F  </i>
   <i type="logical" name="LFOCKACE"> T  </i>
   <i name="ENCUT4O">     -1.00000000</i>
   <i type="int" name="EXXOEP">     0</i>
   <i type="int" name="FOURORBIT">     0</i>
   <i name="AEXX">      0.25000000</i>
   <i name="HFALPHA">     -1.00000000</i>
   <i name="MCALPHA">      0.00000000</i>
   <i name="ALDAX">      0.75000000</i>
   <i name="AGGAX">      0.75000000</i>
   <i name="ALDAC">      1.00000000</i>
   <i name="AGGAC">      1.00000000</i>
   <i type="int" name="NKREDX">     1</i>
   <i type="int" name="NKREDY">     1</i>
   <i type="int" name="NKREDZ">     1</i>
   <i type="logical" name="SHIFTRED"> F  </i>
   <i type="logical" name="ODDONLY"> F  </i>
   <i type="logical" name="EVENONLY"> F  </i>
   <i type="int" name="LMAXFOCK">     4</i>
   <i type="int" name="NMAXFOCKAE">     1</i>
   <i type="logical" name="LFOCKAEDFT"> F  </i>
   <i name="HFSCREEN">      0.20000000</i>
   <i name="HFSCREENC">      0.20000000</i>
   <i type="int" name="NBANDSGWLOW">     1</i>
  </separator>
  <separator name="vdW DFT" >
   <i type="logical" name="LUSE_VDW"> F  </i>
   <i name="Zab_VDW">     -0.84910000</i>
   <i name="PARAM1">      0.12340000</i>
   <i name="PARAM2">      1.00000000</i>
   <i name="PARAM3">      0.00000000</i>
  </separator>
  <separator name="model GW" >
   <i type="int" name="MODEL_GW">     0</i>
   <i name="MODEL_EPS0">      8.89785000</i>
   <i name="MODEL_ALPHA">      1.00000000</i>
  </separator>
  <separator name="linear response parameters" >
   <i type="logical" name="LEPSILON"> F  </i>
   <i type="logical" name="LRPA"> F  </i>
   <i type="logical" name="LNABLA"> F  </i>
   <i type="logical" name="LVEL"> F  </i>
   <i name="CSHIFT">      0.10000000</i>
   <i name="OMEGAMAX">     -1.00000000</i>
   <i name="DEG_THRESHOLD">      0.00200000</i>
   <i name="RTIME">     -0.10000000</i>
   <i name="WPLASMAI">      0.00000000</i>
   <v name="DFIELD">      0.00000000      0.00000000      0.00000000</v>
   <v name="WPLASMA">      0.00000000      0.00000000      0.00000000      0.00000000      0.00000000      0.00000000      0.00000000      0.00000000      0.00000000</v>
  </separator>
  <separator name="orbital magnetization" >
   <i type="logical" name="NUCIND"> F  </i>
   <v name="MAGPOS">      0.00000000      0.00000000      0.00000000</v>
   <i type="logical" name="LNICSALL"> T  </i>
   <i type="logical" name="ORBITALMAG"> F  </i>
   <i type="logical" name="LMAGBLOCH"> F  </i>
   <i type="logical" name="LCHIMAG"> F  </i>
   <i type="logical" name="LGAUGE"> T  </i>
   <i type="int" name="MAGATOM">     0</i>
   <v name="MAGDIPOL">      0.00000000      0.00000000      0.00000000</v>
   <v name="AVECCONST">      0.00000000      0.00000000      0.00000000</v>
  </separator>
  <separator name="response functions" >
   <i type="logical" name="LFINITE_TEMPERATURE"> F  </i>
   <i type="logical" name="LADDER"> F  </i>
   <i type="logical" name="LRPAFORCE"> F  </i>
   <i type="logical" name="LFXC"> F  </i>
   <i type="logical" name="LHARTREE"> T  </i>
   <i type="int" name="IBSE">     0</i>
   <v type="int" name="KPOINT">    -1     0     0     0</v>
   <i type="logical" name="LTCTC"> F  </i>
   <i type="logical" name="LTCTE"> F  </i>
   <i type="logical" name="LTETE"> F  </i>
   <i type="logical" name="LTRIPLET"> F  </i>
   <i type="logical" name="LFXCEPS"> F  </i>
   <i type="logical" name="LFXHEG"> F  </i>
   <i type="int" name="NATURALO">     2</i>
   <i type="logical" name="LHOLEGF"> F  </i>
   <i type="logical" name="L2ORDER"> F  </i>
   <i type="logical" name="LDMP1"> F  </i>
   <i type="logical" name="LMP2LT"> F  </i>
   <i type="logical" name="LSMP2LT"> F  </i>
   <i type="logical" name="LGWLF"> F  </i>
   <i name="ENCUTGW">     -2.00000000</i>
   <i name="ENCUTGWSOFT">     -2.00000000</i>
   <i name="ENCUTLF">     -1.00000000</i>
   <i type="logical" name="LESF_SPLINES"> F  </i>
   <i type="int" name="LMAXMP2">    -1</i>
   <i name="SCISSOR">      0.00000000</i>
   <i type="int" name="NOMEGA">     0</i>
   <i type="int" name="NOMEGAR">     0</i>
   <i type="int" name="NBANDSGW">    -1</i>
   <i type="int" name="NBANDSO">    -1</i>
   <i type="int" name="NBANDSV">    -1</i>
   <i type="int" name="NELMGW">     1</i>
   <i type="int" name="NELMHF">     1</i>
   <i type="int" name="DIM">     3</i>
   <i type="int" name="IESPILON">     4</i>
   <i type="int" name="ANTIRES">     0</i>
   <i name="OMEGAMAX">    -30.00000000</i>
   <i name="OMEGAMIN">    -30.00000000</i>
   <i name="OMEGATL">   -200.00000000</i>
   <i type="int" name="OMEGAGRID">     0</i>
   <i name="CSHIFT">     -0.10000000</i>
   <i type="logical" name="LSELFENERGY"> F  </i>
   <i type="logical" name="LSPECTRAL"> F  </i>
   <i type="logical" name="LSPECTRALGW"> F  </i>
   <i type="logical" name="LSINGLES"> F  </i>
   <i type="logical" name="LFERMIGW"> F  </i>
   <i type="logical" name="ODDONLYGW"> F  </i>
   <i type="logical" name="EVENONLYGW"> F  </i>
   <i type="int" name="NKREDLFX">     1</i>
   <i type="int" name="NKREDLFY">     1</i>
   <i type="int" name="NKREDLFZ">     1</i>
   <i type="int" name="MAXMEM">  2800</i>
   <i type="int" name="TELESCOPE">     0</i>
   <i type="int" name="NTAUPAR">    -1</i>
   <i type="int" name="NOMEGAPAR">    -1</i>
   <i name="DAMP_NEWTON">      0.80000001</i>
   <i name="LAMBDA">      1.00000000</i>
  </separator>
  <separator name="External order field" >
   <i name="OFIELD_KAPPA">      0.00000000</i>
   <v name="OFIELD_K">      0.00000000      0.00000000      0.00000000</v>
   <i name="OFIELD_Q6_NEAR">      0.00000000</i>
   <i name="OFIELD_Q6_FAR">      0.00000000</i>
   <i name="OFIELD_A">      0.00000000</i>
  </separator>
  <separator name="optional k-points parameters" >
   <i type="int" name="KPOINTS_OPT_MODE">     1</i>
   <i type="logical" name="LKPOINTS_OPT"> F  </i>
  </separator>
 </parameters>
 <atominfo>
  <atoms>       1 </atoms>
  <types>       1 </types>
  <array name="atoms" >
   <dimension dim="1">ion</dimension>
   <field type="string">element</field>
   <field type="int">atomtype</field>
   <set>
    <rc><c>Si</c><c>   1</c></rc>
   </set>
  </array>
  <array name="atomtypes" >
   <dimension dim="1">type</dimension>
   <field type="int">atomspertype</field>
   <field type="string">element</field>
   <field>mass</field>
   <field>valence</field>
   <field type="string">pseudopotential</field>
   <set>
    <rc><c>   1</c><c>Si</c><c>     28.08500000</c><c>      4.00000000</c><c> PAW_PBE Si 05Jan2001                   </c></rc>
   </set>
  </array>
 </atominfo>
 <structure name="initialpos" >
  <crystal>
   <varray name="basis" >
    <v>       1.95000000       1.95000000       0.00000000 </v>
    <v>       0.00000000       1.95000000       1.95000000 </v>
    <v>       1.95000000       0.00000000       1.95000000 </v>
   </varray>
   <i name="volume">     14.82975000 </i>
   <varray name="rec_basis" >
    <v>       0.25641026       0.25641026      -0.25641026 </v>
    <v>      -0.25641026       0.25641026       0.25641026 </v>
    <v>       0.25641026      -0.25641026       0.25641026 </v>
   </varray>
  </crystal>
  <varray name="positions" >
   <v>       0.00000000       0.00000000       0.00000000 </v>
  </varray>
 </structure>
 <calculation>
  <scstep>
   <time name="total">    2.24    2.24</time>
   <energy>
    <i name="alphaZ">      2.26996938 </i>
    <i name="ewald">   -135.42777035 </i>
    <i name="hartreedc">     -0.44617555 </i>
    <i name="XCdc">     -7.09498242 </i>
    <i name="pawpsdc">     30.40461623 </i>
    <i name="pawaedc">    -16.46672412 </i>
    <i name="eentropy">      0.00002973 </i>
    <i name="bandstr">     13.90433219 </i>
    <i name="atom">    101.70065652 </i>
    <i name="e_fr_energy">     -5.76803161 </i>
    <i name="e_wo_entrp">     -5.76806134 </i>
    <i name="e_0_energy">     -5.76804152 </i>
   </energy>
  </scstep>
  <scstep>
   <time name="total">    4.36    4.36</time>
   <energy>
    <i name="alphaZ">      2.26996938 </i>
    <i name="ewald">   -135.42777035 </i>
    <i name="hartreedc">     -0.44617555 </i>
    <i name="XCdc">     -7.09498242 </i>
    <i name="pawpsdc">     30.40461622 </i>
    <i name="pawaedc">    -16.46672411 </i>
    <i name="eentropy">      0.00002973 </i>
    <i name="bandstr">     13.90433219 </i>
    <i name="atom">    101.70065652 </i>
    <i name="e_fr_energy">     -5.76803161 </i>
    <i name="e_wo_entrp">     -5.76806134 </i>
    <i name="e_0_energy">     -5.76804152 </i>
   </energy>
  </scstep>
  <structure>
   <crystal>
    <varray name="basis" >
     <v>       1.95000000       1.95000000       0.00000000 </v>
     <v>       0.00000000       1.95000000       1.95000000 </v>
     <v>       1.95000000       0.00000000       1.95000000 </v>
    </varray>
    <i name="volume">     14.82975000 </i>
    <varray name="rec_basis" >
     <v>       0.25641026       0.25641026      -0.25641026 </v>
     <v>      -0.25641026       0.25641026       0.25641026 </v>
     <v>       0.25641026      -0.25641026       0.25641026 </v>
    </varray>
   </crystal>
   <varray name="positions" >
    <v>       0.00000000       0.00000000       0.00000000 </v>
   </varray>
  </structure>
  <varray name="forces" >
   <v>      -0.00000000       0.00000000       0.00000000 </v>
  </varray>
  <energy>
   <i name="e_fr_energy">     -5.76803161 </i>
   <i name="e_wo_entrp">     -5.76806134 </i>
   <i name="e_0_energy">     -5.76804152 </i>
  </energy>
  <time name="totalsc">    9.17    9.29</time>
  <eigenvalues>
   <array>
    <dimension dim="1">band</dimension>
    <dimension dim="2">kpoint</dimension>
    <dimension dim="3">spin</dimension>
    <field>eigene</field>
    <field>occ</field>
    <set>
     <set comment="spin 1">
      <set comment="kpoint 1">
       <r>   -6.2388    1.0000 </r>
       <r>   21.8183    0.0000 </r>
       <r>   21.8183    0.0000 </r>
       <r>   21.8183    0.0000 </r>
       <r>   22.7384    0.0000 </r>
       <r>   22.7384    0.0000 </r>
      </set>
      <set comment="kpoint 2">
       <r>   -5.3607    1.0000 </r>
       <r>   15.1073    0.0000 </r>
       <r>   20.0436    0.0000 </r>
       <r>   20.0436    0.0000 </r>
       <r>   23.9534    0.0000 </r>
       <r>   24.9936    0.0000 </r>
      </set>
      <set comment="kpoint 3">
       <r>   -2.7345    1.0000 </r>
       <r>    7.7803    1.0000 </r>
       <r>   19.1587    0.0000 </r>
       <r>   19.1587    0.0000 </r>
       <r>   22.9606    0.0000 </r>
       <r>   23.7133    0.0000 </r>
      </set>
      <set comment="kpoint 4">
       <r>    1.2508    1.0000 </r>
       <r>    2.0828    1.0000 </r>
       <r>   19.1415    0.0000 </r>
       <r>   19.1415    0.0000 </r>
       <r>   21.6002    0.0000 </r>
       <r>   21.6002    0.0000 </r>
      </set>
      <set comment="kpoint 5">
       <r>   -5.0680    1.0000 </r>
       <r>   17.4645    0.0000 </r>
       <r>   17.4645    0.0000 </r>
       <r>   19.1558    0.0000 </r>
       <r>   19.4389    0.0000 </r>
       <r>   22.8701    0.0000 </r>
      </set>
      <set comment="kpoint 6">
       <r>   -3.0244    1.0000 </r>
       <r>   10.8283   -0.0000 </r>
       <r>   16.2055    0.0000 </r>
       <r>   16.8628    0.0000 </r>
       <r>   19.1361    0.0000 </r>
       <r>   23.7077    0.0000 </r>
      </set>
      <set comment="kpoint 7">
       <r>    0.7395    1.0000 </r>
       <r>    4.3256    1.0000 </r>
       <r>   14.3284    0.0000 </r>
       <r>   16.4281    0.0000 </r>
       <r>   19.2199    0.0000 </r>
       <r>   25.6450    0.0000 </r>
      </set>
      <set comment="kpoint 8">
       <r>   -0.7000    1.0000 </r>
       <r>    6.3280    1.0000 </r>
       <r>   13.0644    0.0000 </r>
       <r>   18.0664    0.0000 </r>
       <r>   20.9982    0.0000 </r>
       <r>   24.5984    0.0000 </r>
      </set>
      <set comment="kpoint 9">
       <r>   -3.8998    1.0000 </r>
       <r>   12.8808    0.0000 </r>
       <r>   13.7135    0.0000 </r>
       <r>   20.7059    0.0000 </r>
       <r>   24.0805    0.0000 </r>
       <r>   24.8604    0.0000 </r>
      </set>
      <set comment="kpoint 10">
       <r>   -1.5669    1.0000 </r>
       <r>   12.1587   -0.0000 </r>
       <r>   14.4270    0.0000 </r>
       <r>   14.4270    0.0000 </r>
       <r>   15.8464    0.0000 </r>
       <r>   18.3076    0.0000 </r>
      </set>
      <set comment="kpoint 11">
       <r>    1.6238    1.0000 </r>
       <r>    8.2391    1.0000 </r>
       <r>    8.9718    1.0000 </r>
       <r>   14.1623    0.0000 </r>
       <r>   16.7441    0.0000 </r>
       <r>   21.8901    0.0000 </r>
      </set>
      <set comment="kpoint 12">
       <r>    3.0408    1.0000 </r>
       <r>    6.1080    1.0000 </r>
       <r>    7.2323    1.0000 </r>
       <r>   15.4367    0.0000 </r>
       <r>   18.1761    0.0000 </r>
       <r>   28.2835    0.0000 </r>
      </set>
      <set comment="kpoint 13">
       <r>    3.8159    1.0000 </r>
       <r>    4.7339    1.0000 </r>
       <r>   13.3736    0.0000 </r>
       <r>   13.3736    0.0000 </r>
       <r>   14.6903    0.0000 </r>
       <r>   17.1943    0.0000 </r>
      </set>
      <set comment="kpoint 14">
       <r>   -0.4047    1.0000 </r>
       <r>    9.5108    1.0348 </r>
       <r>   10.4861   -0.0000 </r>
       <r>   13.4618    0.0000 </r>
       <r>   22.5389    0.0000 </r>
       <r>   23.2108    0.0000 </r>
      </set>
      <set comment="kpoint 15">
       <r>    3.6101    1.0000 </r>
       <r>    4.3204    1.0000 </r>
       <r>   10.5129   -0.0000 </r>
       <r>   11.4072   -0.0000 </r>
       <r>   23.1114    0.0000 </r>
       <r>   24.3448    0.0000 </r>
      </set>
      <set comment="kpoint 16">
       <r>    4.9658    1.0000 </r>
       <r>    5.8476    1.0000 </r>
       <r>    8.3654    1.0000 </r>
       <r>    9.6049    0.6805 </r>
       <r>   21.5368    0.0000 </r>
       <r>   22.5001    0.0000 </r>
      </set>
     </set>
    </set>
   </array>
  </eigenvalues>
  <separator name="orbital magnetization" >
   <v name="MAGDIPOLOUT">      0.00000000      0.00000000      0.00000000</v>
  </separator>
  <dos>
   <i name="efermi">      9.62676239 </i>
   <total>
    <array>
     <dimension dim="1">gridpoints</dimension>
     <dimension dim="2">spin</dimension>
     <field>energy</field>
     <field>total</field>
     <field>integrated</field>
     <set>
      <set comment="spin 1">
       <r>    -7.9649     0.0000     0.0000 </r>
       <r>    -7.8383     0.0000     0.0000 </r>
       <r>    -7.7117     0.0000     0.0000 </r>
       <r>    -7.5852     0.0000     0.0000 </r>
       <r>    -7.4586     0.0000     0.0000 </r>
       <r>    -7.3320     0.0000     0.0000 </r>
       <r>    -7.2054     0.0000     0.0000 </r>
       <r>    -7.0788    -0.0000    -0.0000 </r>
       <r>    -6.9522    -0.0000    -0.0000 </r>
       <r>    -6.8257    -0.0000    -0.0000 </r>
       <r>    -6.6991    -0.0000    -0.0000 </r>
       <r>    -6.5725    -0.0000    -0.0000 </r>
       <r>    -6.4459    -0.0005    -0.0001 </r>
       <r>    -6.3193     0.0011     0.0001 </r>
       <r>    -6.1928     0.0614     0.0078 </r>
       <r>    -6.0662     0.0124     0.0094 </r>
       <r>    -5.9396    -0.0013     0.0093 </r>
       <r>    -5.8130    -0.0000     0.0093 </r>
       <r>    -5.6864    -0.0000     0.0093 </r>
       <r>    -5.5598    -0.0048     0.0087 </r>
       <r>    -5.4333     0.0231     0.0116 </r>
       <r>    -5.3067     0.5023     0.0752 </r>
       <r>    -5.1801     0.0581     0.0825 </r>
       <r>    -5.0535     0.2791     0.1179 </r>
       <r>    -4.9269     0.1799     0.1406 </r>
       <r>    -4.8004    -0.0135     0.1389 </r>
       <r>    -4.6738    -0.0002     0.1389 </r>
       <r>    -4.5472    -0.0000     0.1389 </r>
       <r>    -4.4206    -0.0000     0.1389 </r>
       <r>    -4.2940    -0.0000     0.1389 </r>
       <r>    -4.1674    -0.0004     0.1388 </r>
       <r>    -4.0409    -0.0271     0.1354 </r>
       <r>    -3.9143     0.3602     0.1810 </r>
       <r>    -3.7877     0.5745     0.2537 </r>
       <r>    -3.6611    -0.0278     0.2502 </r>
       <r>    -3.5345    -0.0017     0.2500 </r>
       <r>    -3.4080    -0.0000     0.2500 </r>
       <r>    -3.2814    -0.0015     0.2498 </r>
       <r>    -3.1548    -0.0592     0.2423 </r>
       <r>    -3.0282     0.8812     0.3539 </r>
       <r>    -2.9016     0.9857     0.4786 </r>
       <r>    -2.7750     0.0604     0.4863 </r>
       <r>    -2.6485     0.4764     0.5466 </r>
       <r>    -2.5219     0.0008     0.5467 </r>
       <r>    -2.3953    -0.0030     0.5463 </r>
       <r>    -2.2687    -0.0000     0.5463 </r>
       <r>    -2.1421    -0.0000     0.5463 </r>
       <r>    -2.0156    -0.0000     0.5463 </r>
       <r>    -1.8890    -0.0000     0.5463 </r>
       <r>    -1.7624    -0.0040     0.5458 </r>
       <r>    -1.6358     0.0233     0.5487 </r>
       <r>    -1.5092     0.3798     0.5968 </r>
       <r>    -1.3827     0.0455     0.6026 </r>
       <r>    -1.2561    -0.0056     0.6019 </r>
       <r>    -1.1295    -0.0000     0.6019 </r>
       <r>    -1.0029    -0.0001     0.6018 </r>
       <r>    -0.8763    -0.0277     0.5983 </r>
       <r>    -0.7497     0.2580     0.6310 </r>
       <r>    -0.6232     1.4854     0.8190 </r>
       <r>    -0.4966     0.0271     0.8224 </r>
       <r>    -0.3700     1.3736     0.9963 </r>
       <r>    -0.2434     0.4343     1.0513 </r>
       <r>    -0.1168    -0.0391     1.0463 </r>
       <r>     0.0097    -0.0003     1.0463 </r>
       <r>     0.1363    -0.0000     1.0463 </r>
       <r>     0.2629    -0.0000     1.0463 </r>
       <r>     0.3895    -0.0000     1.0463 </r>
       <r>     0.5161    -0.0061     1.0455 </r>
       <r>     0.6427    -0.0317     1.0415 </r>
       <r>     0.7692     1.3365     1.2107 </r>
       <r>     0.8958     0.5004     1.2740 </r>
       <r>     1.0224    -0.0439     1.2685 </r>
       <r>     1.1490    -0.0074     1.2675 </r>
       <r>     1.2756     0.2135     1.2945 </r>
       <r>     1.4021     0.0884     1.3057 </r>
       <r>     1.5287    -0.0351     1.3013 </r>
       <r>     1.6553     1.3544     1.4727 </r>
       <r>     1.7819     0.4770     1.5331 </r>
       <r>     1.9085    -0.0466     1.5272 </r>
       <r>     2.0351     0.0462     1.5331 </r>
       <r>     2.1616     0.2471     1.5643 </r>
       <r>     2.2882     0.0058     1.5651 </r>
       <r>     2.4148    -0.0020     1.5648 </r>
       <r>     2.5414    -0.0000     1.5648 </r>
       <r>     2.6680    -0.0000     1.5648 </r>
       <r>     2.7945    -0.0012     1.5647 </r>
       <r>     2.9211    -0.0298     1.5609 </r>
       <r>     3.0477     0.5207     1.6268 </r>
       <r>     3.1743     0.4178     1.6797 </r>
       <r>     3.3009    -0.0292     1.6760 </r>
       <r>     3.4275    -0.0241     1.6729 </r>
       <r>     3.5540     0.1965     1.6978 </r>
       <r>     3.6806     1.5082     1.8887 </r>
       <r>     3.8072     0.1836     1.9120 </r>
       <r>     3.9338     0.1181     1.9269 </r>
       <r>     4.0604    -0.0097     1.9257 </r>
       <r>     4.1869    -0.1141     1.9112 </r>
       <r>     4.3135     1.5918     2.1127 </r>
       <r>     4.4401     2.1578     2.3859 </r>
       <r>     4.5667    -0.1213     2.3705 </r>
       <r>     4.6933     0.0394     2.3755 </r>
       <r>     4.8198     0.1541     2.3950 </r>
       <r>     4.9464     0.3238     2.4360 </r>
       <r>     5.0730     0.6062     2.5127 </r>
       <r>     5.1996    -0.0252     2.5095 </r>
       <r>     5.3262    -0.0020     2.5093 </r>
       <r>     5.4528    -0.0000     2.5093 </r>
       <r>     5.5793    -0.0004     2.5092 </r>
       <r>     5.7059    -0.0269     2.5058 </r>
       <r>     5.8325     0.3551     2.5507 </r>
       <r>     5.9591     0.5545     2.6209 </r>
       <r>     6.0857     0.2718     2.6554 </r>
       <r>     6.2122     0.5659     2.7270 </r>
       <r>     6.3388     1.0747     2.8630 </r>
       <r>     6.4654     0.7737     2.9610 </r>
       <r>     6.5920    -0.0563     2.9538 </r>
       <r>     6.7186    -0.0011     2.9537 </r>
       <r>     6.8452    -0.0000     2.9537 </r>
       <r>     6.9717    -0.0006     2.9536 </r>
       <r>     7.0983    -0.0290     2.9500 </r>
       <r>     7.2249     0.4137     3.0023 </r>
       <r>     7.3515     0.5247     3.0687 </r>
       <r>     7.4781    -0.0298     3.0650 </r>
       <r>     7.6046    -0.0106     3.0636 </r>
       <r>     7.7312     0.0886     3.0748 </r>
       <r>     7.8578     0.4964     3.1377 </r>
       <r>     7.9844     0.0121     3.1392 </r>
       <r>     8.1110    -0.0647     3.1310 </r>
       <r>     8.2376     0.8859     3.2431 </r>
       <r>     8.3641     1.4233     3.4233 </r>
       <r>     8.4907     0.4193     3.4764 </r>
       <r>     8.6173    -0.0320     3.4723 </r>
       <r>     8.7439    -0.0061     3.4716 </r>
       <r>     8.8705    -0.0414     3.4663 </r>
       <r>     8.9970     1.2858     3.6291 </r>
       <r>     9.1236     0.5634     3.7004 </r>
       <r>     9.2502    -0.0479     3.6944 </r>
       <r>     9.3768    -0.0610     3.6866 </r>
       <r>     9.5034     0.8067     3.7887 </r>
       <r>     9.6300     1.6915     4.0029 </r>
       <r>     9.7565     0.2230     4.0311 </r>
       <r>     9.8831    -0.0258     4.0278 </r>
       <r>    10.0097    -0.0003     4.0278 </r>
       <r>    10.1363    -0.0000     4.0278 </r>
       <r>    10.2629    -0.0082     4.0267 </r>
       <r>    10.3894    -0.0914     4.0152 </r>
       <r>    10.5160     2.3251     4.3095 </r>
       <r>    10.6426     1.3682     4.4827 </r>
       <r>    10.7692     0.0666     4.4911 </r>
       <r>    10.8958     1.5197     4.6835 </r>
       <r>    11.0224     0.1036     4.6966 </r>
       <r>    11.1489    -0.0183     4.6943 </r>
       <r>    11.2755    -0.0589     4.6868 </r>
       <r>    11.4021     0.8619     4.7959 </r>
       <r>    11.5287     1.0162     4.9245 </r>
       <r>    11.6553    -0.0600     4.9169 </r>
       <r>    11.7818    -0.0022     4.9167 </r>
       <r>    11.9084    -0.0005     4.9166 </r>
       <r>    12.0350    -0.0151     4.9147 </r>
       <r>    12.1616     0.2459     4.9458 </r>
       <r>    12.2882     0.2238     4.9742 </r>
       <r>    12.4147    -0.0149     4.9723 </r>
       <r>    12.5413    -0.0004     4.9722 </r>
       <r>    12.6679    -0.0045     4.9716 </r>
       <r>    12.7945    -0.0002     4.9716 </r>
       <r>    12.9211     0.6640     5.0557 </r>
       <r>    13.0477     0.8683     5.1656 </r>
       <r>    13.1742     1.1591     5.3123 </r>
       <r>    13.3008    -0.0759     5.3027 </r>
       <r>    13.4274     0.8115     5.4054 </r>
       <r>    13.5540     1.4176     5.5849 </r>
       <r>    13.6806     0.2033     5.6106 </r>
       <r>    13.8071     0.6774     5.6964 </r>
       <r>    13.9337    -0.0166     5.6942 </r>
       <r>    14.0603    -0.0468     5.6883 </r>
       <r>    14.1869     1.2236     5.8432 </r>
       <r>    14.3135     1.2563     6.0022 </r>
       <r>    14.4401     1.6731     6.2140 </r>
       <r>    14.5666     0.3079     6.2530 </r>
       <r>    14.6932     0.0920     6.2646 </r>
       <r>    14.8198     0.1113     6.2787 </r>
       <r>    14.9464    -0.0206     6.2761 </r>
       <r>    15.0730     0.1461     6.2946 </r>
       <r>    15.1995     0.4591     6.3527 </r>
       <r>    15.3261    -0.0335     6.3485 </r>
       <r>    15.4527     0.5829     6.4223 </r>
       <r>    15.5793     0.3481     6.4664 </r>
       <r>    15.7059    -0.0402     6.4613 </r>
       <r>    15.8325     0.1815     6.4842 </r>
       <r>    15.9590     0.2832     6.5201 </r>
       <r>    16.0856    -0.0737     6.5108 </r>
       <r>    16.2122     1.0299     6.6411 </r>
       <r>    16.3388     0.8286     6.7460 </r>
       <r>    16.4654     1.3504     6.9170 </r>
       <r>    16.5919     0.3532     6.9617 </r>
       <r>    16.7185     0.4694     7.0211 </r>
       <r>    16.8451     1.9623     7.2695 </r>
       <r>    16.9717     1.1504     7.4151 </r>
       <r>    17.0983    -0.0614     7.4073 </r>
       <r>    17.2249     0.1628     7.4279 </r>
       <r>    17.3514     0.0329     7.4321 </r>
       <r>    17.4780     0.5625     7.5033 </r>
       <r>    17.6046     0.3676     7.5498 </r>
       <r>    17.7312    -0.0274     7.5464 </r>
       <r>    17.8578    -0.0110     7.5450 </r>
       <r>    17.9843     0.0099     7.5462 </r>
       <r>    18.1109     1.5195     7.7386 </r>
       <r>    18.2375     1.0989     7.8777 </r>
       <r>    18.3641     0.4225     7.9311 </r>
       <r>    18.4907     0.0378     7.9359 </r>
       <r>    18.6172    -0.0058     7.9352 </r>
       <r>    18.7438    -0.0000     7.9352 </r>
       <r>    18.8704    -0.0015     7.9350 </r>
       <r>    18.9970    -0.1151     7.9204 </r>
       <r>    19.1236     1.3452     8.0907 </r>
       <r>    19.2502     4.1254     8.6129 </r>
       <r>    19.3767     0.4367     8.6682 </r>
       <r>    19.5033     0.3275     8.7096 </r>
       <r>    19.6299     0.0310     8.7135 </r>
       <r>    19.7565    -0.0048     8.7129 </r>
       <r>    19.8831    -0.0265     8.7096 </r>
       <r>    20.0096     0.2964     8.7471 </r>
       <r>    20.1362     0.9191     8.8634 </r>
       <r>    20.2628    -0.0136     8.8617 </r>
       <r>    20.3894    -0.0048     8.8611 </r>
       <r>    20.5160    -0.0096     8.8599 </r>
       <r>    20.6426     0.0673     8.8684 </r>
       <r>    20.7691     0.7574     8.9643 </r>
       <r>    20.8957     0.0239     8.9673 </r>
       <r>    21.0223     1.2631     9.1272 </r>
       <r>    21.1489     0.5793     9.2005 </r>
       <r>    21.2755    -0.0481     9.1944 </r>
       <r>    21.4020    -0.0343     9.1901 </r>
       <r>    21.5286     0.4332     9.2449 </r>
       <r>    21.6552     1.0259     9.3748 </r>
       <r>    21.7818     0.0385     9.3797 </r>
       <r>    21.9084     1.3657     9.5525 </r>
       <r>    22.0350     0.6625     9.6364 </r>
       <r>    22.1615    -0.0527     9.6297 </r>
       <r>    22.2881    -0.0074     9.6288 </r>
       <r>    22.4147    -0.0578     9.6215 </r>
       <r>    22.5413     1.6949     9.8360 </r>
       <r>    22.6679     1.0835     9.9732 </r>
       <r>    22.7944     0.0507     9.9796 </r>
       <r>    22.9210     0.4946    10.0422 </r>
       <r>    23.0476     0.6285    10.1217 </r>
       <r>    23.1742     1.9271    10.3657 </r>
       <r>    23.3008     1.5393    10.5605 </r>
       <r>    23.4274    -0.0319    10.5565 </r>
       <r>    23.5539    -0.0666    10.5481 </r>
       <r>    23.6805     0.6885    10.6352 </r>
       <r>    23.8071     1.7472    10.8564 </r>
       <r>    23.9337     0.1436    10.8746 </r>
       <r>    24.0603     0.7153    10.9651 </r>
       <r>    24.1868     0.5544    11.0353 </r>
       <r>    24.3134     0.4516    11.0924 </r>
       <r>    24.4400     1.3102    11.2583 </r>
       <r>    24.5666     0.4445    11.3145 </r>
       <r>    24.6932     1.3344    11.4835 </r>
       <r>    24.8197     0.1440    11.5017 </r>
       <r>    24.9463     0.8064    11.6038 </r>
       <r>    25.0729     0.4947    11.6664 </r>
       <r>    25.1995     0.0062    11.6672 </r>
       <r>    25.3261    -0.0039    11.6667 </r>
       <r>    25.4527    -0.0178    11.6644 </r>
       <r>    25.5792     0.1162    11.6791 </r>
       <r>    25.7058     1.5236    11.8720 </r>
       <r>    25.8324     0.1543    11.8915 </r>
       <r>    25.9590    -0.0205    11.8889 </r>
       <r>    26.0856    -0.0001    11.8889 </r>
       <r>    26.2121    -0.0000    11.8889 </r>
       <r>    26.3387    -0.0000    11.8889 </r>
       <r>    26.4653     0.0000    11.8889 </r>
       <r>    26.5919     0.0000    11.8889 </r>
       <r>    26.7185     0.0000    11.8889 </r>
       <r>    26.8451     0.0000    11.8889 </r>
       <r>    26.9716     0.0000    11.8889 </r>
       <r>    27.0982     0.0000    11.8889 </r>
       <r>    27.2248     0.0000    11.8889 </r>
       <r>    27.3514     0.0000    11.8889 </r>
       <r>    27.4780    -0.0000    11.8889 </r>
       <r>    27.6045    -0.0000    11.8889 </r>
       <r>    27.7311    -0.0000    11.8889 </r>
       <r>    27.8577    -0.0000    11.8889 </r>
       <r>    27.9843    -0.0001    11.8889 </r>
       <r>    28.1109    -0.0152    11.8870 </r>
       <r>    28.2375     0.1491    11.9058 </r>
       <r>    28.3640     0.7364    11.9990 </r>
       <r>    28.4906     0.0130    12.0007 </r>
       <r>    28.6172    -0.0055    12.0000 </r>
       <r>    28.7438    -0.0000    12.0000 </r>
       <r>    28.8704    -0.0000    12.0000 </r>
       <r>    28.9969    -0.0000    12.0000 </r>
       <r>    29.1235     0.0000    12.0000 </r>
       <r>    29.2501     0.0000    12.0000 </r>
       <r>    29.3767     0.0000    12.0000 </r>
       <r>    29.5033     0.0000    12.0000 </r>
       <r>    29.6299     0.0000    12.0000 </r>
       <r>    29.7564     0.0000    12.0000 </r>
       <r>    29.8830     0.0000    12.0000 </r>
       <r>    30.0096     0.0000    12.0000 </r>
      </set>
     </set>
    </array>
   </total>
   <partial>
    <array>
     <dimension dim="1">gridpoints</dimension>
     <dimension dim="2">spin</dimension>
     <dimension dim="3">ion</dimension>
     <field>energy</field>
     <field>    s</field>
     <field>   py</field>
     <field>   pz</field>
     <field>   px</field>
     <field>  dxy</field>
     <field>  dyz</field>
     <field>  dz2</field>
     <field>  dxz</field>
     <field>x2-y2</field>
     <set>
      <set comment="ion 1">
       <set comment="spin 1">
        <r>    -7.9649     0.0000     0.0000     0.0000     0.0000     0.0000     0.0000     0.0000     0.0000     0.0000 </r>
        <r>    -7.8383     0.0000     0.0000     0.0000     0.0000     0.0000     0.0000     0.0000     0.0000     0.0000 </r>
        <r>    -7.7117     0.0000     0.0000     0.0000     0.0000     0.0000     0.0000     0.0000     0.0000     0.0000 </r>
        <r>    -7.5852     0.0000     0.0000     0.0000     0.0000     0.0000     0.0000     0.0000     0.0000     0.0000 </r>
        <r>    -7.4586     0.0000     0.0000     0.0000     0.0000     0.0000     0.0000     0.0000     0.0000     0.0000 </r>
        <r>    -7.3320     0.0000     0.0000     0.0000     0.0000     0.0000     0.0000     0.0000     0.0000     0.0000 </r>
        <r>    -7.2054     0.0000     0.0000     0.0000     0.0000     0.0000     0.0000     0.0000     0.0000     0.0000 </r>
        <r>    -7.0788    -0.0000    -0.0000    -0.0000    -0.0000     0.0000     0.0000     0.0000     0.0000     0.0000 </r>
        <r>    -6.9522    -0.0000    -0.0000    -0.0000    -0.0000     0.0000     0.0000     0.0000     0.0000     0.0000 </r>
        <r>    -6.8257    -0.0000    -0.0000    -0.0000    -0.0000     0.0000     0.0000     0.0000     0.0000     0.0000 </r>
        <r>    -6.6991    -0.0000    -0.0000    -0.0000    -0.0000     0.0000     0.0000     0.0000     0.0000     0.0000 </r>
        <r>    -6.5725    -0.0000    -0.0000    -0.0000    -0.0000     0.0000     0.0000     0.0000     0.0000     0.0000 </r>
        <r>    -6.4459    -0.0002    -0.0000    -0.0000    -0.0000     0.0000     0.0000     0.0000     0.0000     0.0000 </r>
        <r>    -6.3193     0.0004     0.0000     0.0000     0.0000     0.0000     0.0000     0.0000     0.0000     0.0000 </r>
        <r>    -6.1928     0.0238     0.0000     0.0000     0.0000     0.0000     0.0000     0.0000     0.0000     0.0000 </r>
        <r>    -6.0662     0.0048     0.0000     0.0000     0.0000     0.0000     0.0000     0.0000     0.0000     0.0000 </r>
        <r>    -5.9396    -0.0005    -0.0000    -0.0000    -0.0000     0.0000     0.0000     0.0000     0.0000     0.0000 </r>
        <r>    -5.8130    -0.0000    -0.0000    -0.0000    -0.0000     0.0000     0.0000     0.0000     0.0000     0.0000 </r>
        <r>    -5.6864    -0.0000    -0.0000    -0.0000    -0.0000     0.0000     0.0000     0.0000     0.0000     0.0000 </r>
        <r>    -5.5598    -0.0018    -0.0000    -0.0000    -0.0000     0.0000     0.0000     0.0000     0.0000     0.0000 </r>
        <r>    -5.4333     0.0086     0.0002     0.0002     0.0002     0.0000     0.0000     0.0000     0.0000     0.0000 </r>
        <r>    -5.3067     0.1858     0.0033     0.0033     0.0033     0.0000     0.0000     0.0000     0.0000     0.0000 </r>
        <r>    -5.1801     0.0216     0.0003     0.0003     0.0003     0.0000     0.0000     0.0000     0.0000     0.0000 </r>
        <r>    -5.0535     0.1015     0.0025     0.0025     0.0025     0.0000     0.0000     0.0000     0.0000     0.0000 </r>
        <r>    -4.9269     0.0655     0.0016     0.0016     0.0016     0.0000     0.0000     0.0000     0.0000     0.0000 </r>
        <r>    -4.8004    -0.0049    -0.0001    -0.0001    -0.0001     0.0000     0.0000     0.0000     0.0000     0.0000 </r>
        <r>    -4.6738    -0.0001    -0.0000    -0.0000    -0.0000     0.0000     0.0000     0.0000     0.0000     0.0000 </r>
        <r>    -4.5472    -0.0000    -0.0000    -0.0000    -0.0000     0.0000     0.0000     0.0000     0.0000     0.0000 </r>
        <r>    -4.4206    -0.0000    -0.0000    -0.0000    -0.0000     0.0000     0.0000     0.0000     0.0000     0.0000 </r>
        <r>    -4.2940    -0.0000    -0.0000    -0.0000    -0.0000     0.0000     0.0000     0.0000     0.0000     0.0000 </r>
        <r>    -4.1674    -0.0002    -0.0000    -0.0000    -0.0000     0.0000     0.0000     0.0000     0.0000     0.0000 </r>
        <r>    -4.0409    -0.0093    -0.0005    -0.0005    -0.0005     0.0000     0.0000     0.0000     0.0000     0.0000 </r>
        <r>    -3.9143     0.1232     0.0060     0.0060     0.0060     0.0000     0.0000     0.0000     0.0000     0.0000 </r>
        <r>    -3.7877     0.1965     0.0096     0.0096     0.0096     0.0000     0.0000     0.0000     0.0000     0.0000 </r>
        <r>    -3.6611    -0.0095    -0.0005    -0.0005    -0.0005     0.0000     0.0000     0.0000     0.0000     0.0000 </r>
        <r>    -3.5345    -0.0006    -0.0000    -0.0000    -0.0000     0.0000     0.0000     0.0000     0.0000     0.0000 </r>
        <r>    -3.4080    -0.0000    -0.0000    -0.0000    -0.0000     0.0000     0.0000     0.0000     0.0000     0.0000 </r>
        <r>    -3.2814    -0.0005    -0.0000    -0.0000    -0.0000     0.0000     0.0000     0.0000     0.0000     0.0000 </r>
        <r>    -3.1548    -0.0193    -0.0013    -0.0013    -0.0013     0.0000     0.0000     0.0000     0.0000     0.0000 </r>
        <r>    -3.0282     0.2867     0.0199     0.0199     0.0199     0.0000     0.0000     0.0000     0.0000     0.0000 </r>
        <r>    -2.9016     0.3207     0.0222     0.0222     0.0222     0.0000     0.0000     0.0000     0.0000     0.0000 </r>
        <r>    -2.7750     0.0195     0.0015     0.0015     0.0015     0.0000     0.0000     0.0000     0.0000     0.0000 </r>
        <r>    -2.6485     0.1543     0.0111     0.0111     0.0111     0.0000     0.0000     0.0000     0.0000     0.0000 </r>
        <r>    -2.5219     0.0002     0.0000     0.0000     0.0000     0.0000     0.0000     0.0000     0.0000     0.0000 </r>
        <r>    -2.3953    -0.0010    -0.0001    -0.0001    -0.0001     0.0000     0.0000     0.0000     0.0000     0.0000 </r>
        <r>    -2.2687    -0.0000    -0.0000    -0.0000    -0.0000     0.0000     0.0000     0.0000     0.0000     0.0000 </r>
        <r>    -2.1421    -0.0000    -0.0000    -0.0000    -0.0000     0.0000     0.0000     0.0000     0.0000     0.0000 </r>
        <r>    -2.0156    -0.0000    -0.0000    -0.0000    -0.0000     0.0000     0.0000     0.0000     0.0000     0.0000 </r>
        <r>    -1.8890    -0.0000    -0.0000    -0.0000    -0.0000     0.0000     0.0000     0.0000     0.0000     0.0000 </r>
        <r>    -1.7624    -0.0012    -0.0001    -0.0001    -0.0001     0.0000     0.0000     0.0000     0.0000     0.0000 </r>
        <r>    -1.6358     0.0069     0.0008     0.0008     0.0008     0.0000     0.0000     0.0000     0.0000     0.0000 </r>
        <r>    -1.5092     0.1121     0.0125     0.0125     0.0125     0.0000     0.0000     0.0000     0.0000     0.0000 </r>
        <r>    -1.3827     0.0134     0.0015     0.0015     0.0015     0.0000     0.0000     0.0000     0.0000     0.0000 </r>
        <r>    -1.2561    -0.0017    -0.0002    -0.0002    -0.0002     0.0000     0.0000     0.0000     0.0000     0.0000 </r>
        <r>    -1.1295    -0.0000    -0.0000    -0.0000    -0.0000     0.0000     0.0000     0.0000     0.0000     0.0000 </r>
        <r>    -1.0029    -0.0000    -0.0000    -0.0000    -0.0000     0.0000     0.0000     0.0000     0.0000     0.0000 </r>
        <r>    -0.8763    -0.0081    -0.0010    -0.0010    -0.0010     0.0000     0.0000     0.0000     0.0000     0.0000 </r>
        <r>    -0.7497     0.0758     0.0088     0.0088     0.0088     0.0000     0.0000     0.0000     0.0000     0.0000 </r>
        <r>    -0.6232     0.4364     0.0509     0.0509     0.0509     0.0000     0.0000     0.0000     0.0000     0.0000 </r>
        <r>    -0.4966     0.0082     0.0009     0.0009     0.0009     0.0000     0.0000     0.0000     0.0000     0.0000 </r>
        <r>    -0.3700     0.3856     0.0525     0.0525     0.0525     0.0000     0.0000     0.0000     0.0000     0.0000 </r>
        <r>    -0.2434     0.1220     0.0166     0.0166     0.0166     0.0000     0.0000     0.0000     0.0000     0.0000 </r>
        <r>    -0.1168    -0.0110    -0.0015    -0.0015    -0.0015     0.0000     0.0000     0.0000     0.0000     0.0000 </r>
        <r>     0.0097    -0.0001    -0.0000    -0.0000    -0.0000     0.0000     0.0000     0.0000     0.0000     0.0000 </r>
        <r>     0.1363    -0.0000    -0.0000    -0.0000    -0.0000     0.0000     0.0000     0.0000     0.0000     0.0000 </r>
        <r>     0.2629    -0.0000    -0.0000    -0.0000    -0.0000     0.0000     0.0000     0.0000     0.0000     0.0000 </r>
        <r>     0.3895    -0.0000    -0.0000    -0.0000    -0.0000     0.0000     0.0000     0.0000     0.0000     0.0000 </r>
        <r>     0.5161    -0.0018    -0.0002    -0.0002    -0.0002     0.0000     0.0000     0.0000     0.0000     0.0000 </r>
        <r>     0.6427    -0.0091    -0.0012    -0.0012    -0.0012     0.0000     0.0000     0.0000     0.0000     0.0000 </r>
        <r>     0.7692     0.3858     0.0508     0.0508     0.0508     0.0000     0.0000     0.0000     0.0000     0.0000 </r>
        <r>     0.8958     0.1444     0.0190     0.0190     0.0190     0.0000     0.0000     0.0000     0.0000     0.0000 </r>
        <r>     1.0224    -0.0128    -0.0016    -0.0016    -0.0016     0.0000     0.0000     0.0000     0.0000     0.0000 </r>
        <r>     1.1490    -0.0033    -0.0000    -0.0000    -0.0000     0.0000     0.0000     0.0000     0.0000     0.0000 </r>
        <r>     1.2756     0.0971    -0.0000    -0.0000    -0.0000     0.0000     0.0000     0.0000     0.0000     0.0000 </r>
        <r>     1.4021     0.0416    -0.0003    -0.0003    -0.0003     0.0000     0.0000     0.0000     0.0000     0.0000 </r>
        <r>     1.5287    -0.0100    -0.0014    -0.0014    -0.0014     0.0000     0.0000     0.0000     0.0000     0.0000 </r>
        <r>     1.6553     0.3217     0.0709     0.0709     0.0709     0.0000     0.0000     0.0000     0.0000     0.0000 </r>
        <r>     1.7819     0.1133     0.0250     0.0250     0.0250     0.0000     0.0000     0.0000     0.0000     0.0000 </r>
        <r>     1.9085    -0.0099    -0.0027    -0.0027    -0.0027     0.0000     0.0000     0.0000     0.0000     0.0000 </r>
        <r>     2.0351    -0.0001     0.0048     0.0048     0.0048     0.0000     0.0000     0.0000     0.0000     0.0000 </r>
        <r>     2.1616    -0.0000     0.0258     0.0258     0.0258     0.0000     0.0000     0.0000     0.0000     0.0000 </r>
        <r>     2.2882    -0.0000     0.0006     0.0006     0.0006     0.0000     0.0000     0.0000     0.0000     0.0000 </r>
        <r>     2.4148    -0.0000    -0.0002    -0.0002    -0.0002     0.0000     0.0000     0.0000     0.0000     0.0000 </r>
        <r>     2.5414    -0.0000    -0.0000    -0.0000    -0.0000     0.0000     0.0000     0.0000     0.0000     0.0000 </r>
        <r>     2.6680    -0.0000    -0.0000    -0.0000    -0.0000     0.0000     0.0000     0.0000     0.0000     0.0000 </r>
        <r>     2.7945    -0.0003    -0.0001    -0.0001    -0.0001     0.0000     0.0000     0.0000     0.0000     0.0000 </r>
        <r>     2.9211    -0.0079    -0.0015    -0.0015    -0.0015     0.0000     0.0000     0.0000     0.0000     0.0000 </r>
        <r>     3.0477     0.1372     0.0254     0.0254     0.0254     0.0000     0.0000     0.0000     0.0000     0.0000 </r>
        <r>     3.1743     0.1100     0.0204     0.0204     0.0204     0.0000     0.0000     0.0000     0.0000     0.0000 </r>
        <r>     3.3009    -0.0077    -0.0014    -0.0014    -0.0014     0.0000     0.0000     0.0000     0.0000     0.0000 </r>
        <r>     3.4275    -0.0091    -0.0007    -0.0007    -0.0007     0.0000     0.0000     0.0000     0.0000     0.0000 </r>
        <r>     3.5540     0.0745     0.0055     0.0055     0.0055     0.0000     0.0000     0.0000     0.0000     0.0000 </r>
        <r>     3.6806     0.5742     0.0417     0.0417     0.0417     0.0000     0.0000     0.0000     0.0000     0.0000 </r>
        <r>     3.8072     0.0313     0.0141     0.0141     0.0141     0.0000     0.0000     0.0000     0.0000     0.0000 </r>
        <r>     3.9338    -0.0058     0.0151     0.0151     0.0151     0.0000     0.0000     0.0000     0.0000     0.0000 </r>
        <r>     4.0604    -0.0002    -0.0011    -0.0011    -0.0011     0.0000     0.0000     0.0000     0.0000     0.0000 </r>
        <r>     4.1869    -0.0078    -0.0100    -0.0100    -0.0100     0.0000     0.0000     0.0000     0.0000     0.0000 </r>
        <r>     4.3135     0.1065     0.1406     0.1406     0.1406     0.0000     0.0000     0.0000     0.0000     0.0000 </r>
        <r>     4.4401     0.1570     0.1882     0.1882     0.1882     0.0000     0.0000     0.0000     0.0000     0.0000 </r>
        <r>     4.5667    -0.0100    -0.0103    -0.0103    -0.0103     0.0000     0.0000     0.0000     0.0000     0.0000 </r>
        <r>     4.6933     0.0202    -0.0005    -0.0005    -0.0005     0.0000     0.0000     0.0000     0.0000     0.0000 </r>
        <r>     4.8198     0.0822    -0.0029    -0.0029    -0.0029     0.0000     0.0000     0.0000     0.0000     0.0000 </r>
        <r>     4.9464     0.0001     0.0364     0.0364     0.0364     0.0000     0.0000     0.0000     0.0000     0.0000 </r>
        <r>     5.0730    -0.0005     0.0684     0.0684     0.0684     0.0000     0.0000     0.0000     0.0000     0.0000 </r>
        <r>     5.1996    -0.0000    -0.0028    -0.0028    -0.0028     0.0000     0.0000     0.0000     0.0000     0.0000 </r>
        <r>     5.3262    -0.0000    -0.0002    -0.0002    -0.0002     0.0000     0.0000     0.0000     0.0000     0.0000 </r>
        <r>     5.4528    -0.0000    -0.0000    -0.0000    -0.0000     0.0000     0.0000     0.0000     0.0000     0.0000 </r>
        <r>     5.5793    -0.0002    -0.0000    -0.0000    -0.0000     0.0000     0.0000     0.0000     0.0000     0.0000 </r>
        <r>     5.7059    -0.0131    -0.0002    -0.0002    -0.0002     0.0000     0.0000     0.0000     0.0000     0.0000 </r>
        <r>     5.8325     0.1737     0.0023     0.0023     0.0023     0.0000     0.0000     0.0000     0.0000     0.0000 </r>
        <r>     5.9591     0.2830     0.0011     0.0011     0.0011     0.0000     0.0000     0.0000     0.0000     0.0000 </r>
        <r>     6.0857    -0.0138     0.0326     0.0326     0.0326     0.0000     0.0000     0.0000     0.0000     0.0000 </r>
        <r>     6.2122    -0.0083     0.0637     0.0637     0.0637     0.0000     0.0000     0.0000     0.0000     0.0000 </r>
        <r>     6.3388     0.1406     0.0837     0.0837     0.0837     0.0000     0.0000     0.0000     0.0000     0.0000 </r>
        <r>     6.4654     0.0994     0.0607     0.0607     0.0607     0.0000     0.0000     0.0000     0.0000     0.0000 </r>
        <r>     6.5920    -0.0072    -0.0044    -0.0044    -0.0044     0.0000     0.0000     0.0000     0.0000     0.0000 </r>
        <r>     6.7186    -0.0001    -0.0001    -0.0001    -0.0001     0.0000     0.0000     0.0000     0.0000     0.0000 </r>
        <r>     6.8452    -0.0000    -0.0000    -0.0000    -0.0000     0.0000     0.0000     0.0000     0.0000     0.0000 </r>
        <r>     6.9717    -0.0002    -0.0000    -0.0000    -0.0000     0.0000     0.0000     0.0000     0.0000     0.0000 </r>
        <r>     7.0983    -0.0082    -0.0013    -0.0013    -0.0013     0.0000     0.0000     0.0000     0.0000     0.0000 </r>
        <r>     7.2249     0.1176     0.0184     0.0184     0.0184     0.0000     0.0000     0.0000     0.0000     0.0000 </r>
        <r>     7.3515     0.1492     0.0233     0.0233     0.0233     0.0000     0.0000     0.0000     0.0000     0.0000 </r>
        <r>     7.4781    -0.0085    -0.0013    -0.0013    -0.0013     0.0000     0.0000     0.0000     0.0000     0.0000 </r>
        <r>     7.6046    -0.0015    -0.0008    -0.0008    -0.0008     0.0000     0.0000     0.0000     0.0000     0.0000 </r>
        <r>     7.7312     0.0109     0.0071     0.0071     0.0071     0.0000     0.0000     0.0000     0.0000     0.0000 </r>
        <r>     7.8578     0.0609     0.0398     0.0398     0.0398     0.0000     0.0000     0.0000     0.0000     0.0000 </r>
        <r>     7.9844     0.0012     0.0010     0.0010     0.0010     0.0000     0.0000     0.0000     0.0000     0.0000 </r>
        <r>     8.1110    -0.0166    -0.0045    -0.0045    -0.0045     0.0000     0.0000     0.0000     0.0000     0.0000 </r>
        <r>     8.2376     0.2468     0.0597     0.0597     0.0597     0.0000     0.0000     0.0000     0.0000     0.0000 </r>
        <r>     8.3641     0.2595     0.1138     0.1138     0.1138     0.0000     0.0000     0.0000     0.0000     0.0000 </r>
        <r>     8.4907    -0.0162     0.0456     0.0456     0.0456     0.0000     0.0000     0.0000     0.0000     0.0000 </r>
        <r>     8.6173    -0.0005    -0.0033    -0.0033    -0.0033     0.0000     0.0000     0.0000     0.0000     0.0000 </r>
        <r>     8.7439    -0.0001    -0.0005    -0.0005    -0.0005     0.0000     0.0000     0.0000     0.0000     0.0000 </r>
        <r>     8.8705    -0.0007    -0.0036    -0.0036    -0.0036     0.0000     0.0000     0.0000     0.0000     0.0000 </r>
        <r>     8.9970     0.0217     0.1132     0.1132     0.1132     0.0000     0.0000     0.0000     0.0000     0.0000 </r>
        <r>     9.1236     0.0095     0.0496     0.0496     0.0496     0.0000     0.0000     0.0000     0.0000     0.0000 </r>
        <r>     9.2502    -0.0008    -0.0042    -0.0042    -0.0042     0.0000     0.0000     0.0000     0.0000     0.0000 </r>
        <r>     9.3768    -0.0003    -0.0061    -0.0061    -0.0061     0.0000     0.0000     0.0000     0.0000     0.0000 </r>
        <r>     9.5034    -0.0027     0.0820     0.0820     0.0820     0.0000     0.0000     0.0000     0.0000     0.0000 </r>
        <r>     9.6300     0.0819     0.1543     0.1543     0.1543     0.0000     0.0000     0.0000     0.0000     0.0000 </r>
        <r>     9.7565     0.0360     0.0152     0.0152     0.0152     0.0000     0.0000     0.0000     0.0000     0.0000 </r>
        <r>     9.8831    -0.0030    -0.0020    -0.0020    -0.0020     0.0000     0.0000     0.0000     0.0000     0.0000 </r>
        <r>    10.0097    -0.0000    -0.0000    -0.0000    -0.0000     0.0000     0.0000     0.0000     0.0000     0.0000 </r>
        <r>    10.1363    -0.0000    -0.0000    -0.0000    -0.0000     0.0000     0.0000     0.0000     0.0000     0.0000 </r>
        <r>    10.2629    -0.0020    -0.0006    -0.0006    -0.0006     0.0000     0.0000     0.0000     0.0000     0.0000 </r>
        <r>    10.3894    -0.0221    -0.0075    -0.0075    -0.0075     0.0000     0.0000     0.0000     0.0000     0.0000 </r>
        <r>    10.5160     0.5707     0.1872     0.1872     0.1872     0.0000     0.0000     0.0000     0.0000     0.0000 </r>
        <r>    10.6426     0.3340     0.1123     0.1123     0.1123     0.0000     0.0000     0.0000     0.0000     0.0000 </r>
        <r>    10.7692    -0.0100     0.0069     0.0069     0.0069     0.0000     0.0000     0.0000     0.0000     0.0000 </r>
        <r>    10.8958     0.1334     0.1375     0.1375     0.1375     0.0000     0.0000     0.0000     0.0000     0.0000 </r>
        <r>    11.0224     0.0091     0.0094     0.0094     0.0094     0.0000     0.0000     0.0000     0.0000     0.0000 </r>
        <r>    11.1489    -0.0015    -0.0016    -0.0016    -0.0016     0.0000     0.0000     0.0000     0.0000     0.0000 </r>
        <r>    11.2755    -0.0000    -0.0050    -0.0050    -0.0050     0.0000     0.0000     0.0000     0.0000     0.0000 </r>
        <r>    11.4021    -0.0000     0.0733     0.0733     0.0733     0.0000     0.0000     0.0000     0.0000     0.0000 </r>
        <r>    11.5287    -0.0000     0.0865     0.0865     0.0865     0.0000     0.0000     0.0000     0.0000     0.0000 </r>
        <r>    11.6553    -0.0000    -0.0051    -0.0051    -0.0051     0.0000     0.0000     0.0000     0.0000     0.0000 </r>
        <r>    11.7818    -0.0000    -0.0002    -0.0002    -0.0002     0.0000     0.0000     0.0000     0.0000     0.0000 </r>
        <r>    11.9084    -0.0001    -0.0000    -0.0000    -0.0000     0.0000     0.0000     0.0000     0.0000     0.0000 </r>
        <r>    12.0350    -0.0027    -0.0013    -0.0013    -0.0013     0.0000     0.0000     0.0000     0.0000     0.0000 </r>
        <r>    12.1616     0.0438     0.0220     0.0220     0.0220     0.0000     0.0000     0.0000     0.0000     0.0000 </r>
        <r>    12.2882     0.0399     0.0200     0.0200     0.0200     0.0000     0.0000     0.0000     0.0000     0.0000 </r>
        <r>    12.4147    -0.0026    -0.0013    -0.0013    -0.0013     0.0000     0.0000     0.0000     0.0000     0.0000 </r>
        <r>    12.5413    -0.0001    -0.0000    -0.0000    -0.0000     0.0000     0.0000     0.0000     0.0000     0.0000 </r>
        <r>    12.6679    -0.0000    -0.0004    -0.0004    -0.0004     0.0000     0.0000     0.0000     0.0000     0.0000 </r>
        <r>    12.7945    -0.0001    -0.0000    -0.0000    -0.0000     0.0000     0.0000     0.0000     0.0000     0.0000 </r>
        <r>    12.9211    -0.0056     0.0631     0.0631     0.0631     0.0000     0.0000     0.0000     0.0000     0.0000 </r>
        <r>    13.0477     0.0732     0.0846     0.0846     0.0846     0.0000     0.0000     0.0000     0.0000     0.0000 </r>
        <r>    13.1742     0.1260     0.1135     0.1135     0.1135     0.0000     0.0000     0.0000     0.0000     0.0000 </r>
        <r>    13.3008    -0.0079    -0.0062    -0.0062    -0.0062     0.0000     0.0000     0.0000     0.0000     0.0000 </r>
        <r>    13.4274     0.0241     0.0987     0.0987     0.0987     0.0000     0.0000     0.0000     0.0000     0.0000 </r>
        <r>    13.5540     0.0745     0.1323     0.1323     0.1323     0.0000     0.0000     0.0000     0.0000     0.0000 </r>
        <r>    13.6806     0.0337     0.0208     0.0208     0.0208     0.0000     0.0000     0.0000     0.0000     0.0000 </r>
        <r>    13.8071     0.1037     0.0697     0.0697     0.0697     0.0000     0.0000     0.0000     0.0000     0.0000 </r>
        <r>    13.9337    -0.0018    -0.0020    -0.0020    -0.0020     0.0000     0.0000     0.0000     0.0000     0.0000 </r>
        <r>    14.0603    -0.0006    -0.0070    -0.0070    -0.0070     0.0000     0.0000     0.0000     0.0000     0.0000 </r>
        <r>    14.1869    -0.0057     0.1911     0.1911     0.1911     0.0000     0.0000     0.0000     0.0000     0.0000 </r>
        <r>    14.3135     0.0753     0.1584     0.1584     0.1584     0.0000     0.0000     0.0000     0.0000     0.0000 </r>
        <r>    14.4401     0.1221     0.1996     0.1996     0.1996     0.0000     0.0000     0.0000     0.0000     0.0000 </r>
        <r>    14.5666    -0.0058     0.0505     0.0505     0.0505     0.0000     0.0000     0.0000     0.0000     0.0000 </r>
        <r>    14.6932    -0.0004    -0.0045    -0.0045    -0.0045     0.0000     0.0000     0.0000     0.0000     0.0000 </r>
        <r>    14.8198    -0.0000    -0.0001    -0.0001    -0.0001     0.0000     0.0000     0.0000     0.0000     0.0000 </r>
        <r>    14.9464    -0.0007    -0.0013    -0.0013    -0.0013     0.0000     0.0000     0.0000     0.0000     0.0000 </r>
        <r>    15.0730     0.0075     0.0146     0.0146     0.0146     0.0000     0.0000     0.0000     0.0000     0.0000 </r>
        <r>    15.1995     0.0236     0.0459     0.0459     0.0459     0.0000     0.0000     0.0000     0.0000     0.0000 </r>
        <r>    15.3261    -0.0003    -0.0047    -0.0047    -0.0047     0.0000     0.0000     0.0000     0.0000     0.0000 </r>
        <r>    15.4527    -0.0001     0.0885     0.0885     0.0885     0.0000     0.0000     0.0000     0.0000     0.0000 </r>
        <r>    15.5793    -0.0000     0.0528     0.0528     0.0528     0.0000     0.0000     0.0000     0.0000     0.0000 </r>
        <r>    15.7059    -0.0000    -0.0040    -0.0040    -0.0040     0.0000     0.0000     0.0000     0.0000     0.0000 </r>
        <r>    15.8325     0.0000    -0.0001    -0.0001    -0.0001     0.0000     0.0000     0.0000     0.0000     0.0000 </r>
        <r>    15.9590     0.0000    -0.0003    -0.0003    -0.0003     0.0000     0.0000     0.0000     0.0000     0.0000 </r>
        <r>    16.0856    -0.0000    -0.0088    -0.0088    -0.0088     0.0000     0.0000     0.0000     0.0000     0.0000 </r>
        <r>    16.2122    -0.0000     0.1514     0.1514     0.1514     0.0000     0.0000     0.0000     0.0000     0.0000 </r>
        <r>    16.3388    -0.0000     0.1217     0.1217     0.1217     0.0000     0.0000     0.0000     0.0000     0.0000 </r>
        <r>    16.4654    -0.0001     0.2047     0.2047     0.2047     0.0000     0.0000     0.0000     0.0000     0.0000 </r>
        <r>    16.5919    -0.0057     0.0604     0.0604     0.0604     0.0000     0.0000     0.0000     0.0000     0.0000 </r>
        <r>    16.7185     0.0614    -0.0111    -0.0111    -0.0111     0.0000     0.0000     0.0000     0.0000     0.0000 </r>
        <r>    16.8451     0.2414     0.0861     0.0861     0.0861     0.0000     0.0000     0.0000     0.0000     0.0000 </r>
        <r>    16.9717     0.1447     0.1485     0.1485     0.1485     0.0000     0.0000     0.0000     0.0000     0.0000 </r>
        <r>    17.0983    -0.0083    -0.0066    -0.0066    -0.0066     0.0000     0.0000     0.0000     0.0000     0.0000 </r>
        <r>    17.2249     0.0478    -0.0007    -0.0007    -0.0007     0.0000     0.0000     0.0000     0.0000     0.0000 </r>
        <r>    17.3514     0.0175    -0.0040    -0.0040    -0.0040     0.0000     0.0000     0.0000     0.0000     0.0000 </r>
        <r>    17.4780    -0.0015     0.0801     0.0801     0.0801     0.0000     0.0000     0.0000     0.0000     0.0000 </r>
        <r>    17.6046    -0.0000     0.0518     0.0518     0.0518     0.0000     0.0000     0.0000     0.0000     0.0000 </r>
        <r>    17.7312    -0.0000    -0.0039    -0.0039    -0.0039     0.0000     0.0000     0.0000     0.0000     0.0000 </r>
        <r>    17.8578    -0.0000    -0.0017    -0.0017    -0.0017     0.0000     0.0000     0.0000     0.0000     0.0000 </r>
        <r>    17.9843    -0.0011     0.0029     0.0029     0.0029     0.0000     0.0000     0.0000     0.0000     0.0000 </r>
        <r>    18.1109     0.0066     0.2311     0.2311     0.2311     0.0000     0.0000     0.0000     0.0000     0.0000 </r>
        <r>    18.2375     0.0988     0.0557     0.0557     0.0557     0.0000     0.0000     0.0000     0.0000     0.0000 </r>
        <r>    18.3641     0.0921     0.0003     0.0003     0.0003     0.0000     0.0000     0.0000     0.0000     0.0000 </r>
        <r>    18.4907     0.0093     0.0005     0.0005     0.0005     0.0000     0.0000     0.0000     0.0000     0.0000 </r>
        <r>    18.6172    -0.0013    -0.0001    -0.0001    -0.0001     0.0000     0.0000     0.0000     0.0000     0.0000 </r>
        <r>    18.7438    -0.0000    -0.0000    -0.0000    -0.0000     0.0000     0.0000     0.0000     0.0000     0.0000 </r>
        <r>    18.8704    -0.0000    -0.0001    -0.0001    -0.0001     0.0000     0.0000     0.0000     0.0000     0.0000 </r>
        <r>    18.9970    -0.0025    -0.0082    -0.0082    -0.0082     0.0000     0.0000     0.0000     0.0000     0.0000 </r>
        <r>    19.1236     0.0244     0.0966     0.0966     0.0966     0.0000     0.0000     0.0000     0.0000     0.0000 </r>
        <r>    19.2502     0.1540     0.2597     0.2597     0.2597     0.0000     0.0000     0.0000     0.0000     0.0000 </r>
        <r>    19.3767     0.0457     0.0066     0.0066     0.0066     0.0000     0.0000     0.0000     0.0000     0.0000 </r>
        <r>    19.5033     0.0579     0.0654     0.0654     0.0654     0.0000     0.0000     0.0000     0.0000     0.0000 </r>
        <r>    19.6299     0.0050     0.0055     0.0055     0.0055     0.0000     0.0000     0.0000     0.0000     0.0000 </r>
        <r>    19.7565    -0.0007    -0.0008    -0.0008    -0.0008     0.0000     0.0000     0.0000     0.0000     0.0000 </r>
        <r>    19.8831    -0.0000    -0.0040    -0.0040    -0.0040     0.0000     0.0000     0.0000     0.0000     0.0000 </r>
        <r>    20.0096    -0.0000     0.0451     0.0451     0.0451     0.0000     0.0000     0.0000     0.0000     0.0000 </r>
        <r>    20.1362    -0.0000     0.1397     0.1397     0.1397     0.0000     0.0000     0.0000     0.0000     0.0000 </r>
        <r>    20.2628    -0.0000    -0.0021    -0.0021    -0.0021     0.0000     0.0000     0.0000     0.0000     0.0000 </r>
        <r>    20.3894    -0.0000    -0.0007    -0.0007    -0.0007     0.0000     0.0000     0.0000     0.0000     0.0000 </r>
        <r>    20.5160    -0.0000    -0.0018    -0.0018    -0.0018     0.0000     0.0000     0.0000     0.0000     0.0000 </r>
        <r>    20.6426    -0.0000     0.0130     0.0130     0.0130     0.0000     0.0000     0.0000     0.0000     0.0000 </r>
        <r>    20.7691    -0.0004     0.1472     0.1472     0.1472     0.0000     0.0000     0.0000     0.0000     0.0000 </r>
        <r>    20.8957    -0.0034     0.0119     0.0119     0.0119     0.0000     0.0000     0.0000     0.0000     0.0000 </r>
        <r>    21.0223     0.0995     0.0297     0.0297     0.0297     0.0000     0.0000     0.0000     0.0000     0.0000 </r>
        <r>    21.1489     0.0453     0.0143     0.0143     0.0143     0.0000     0.0000     0.0000     0.0000     0.0000 </r>
        <r>    21.2755    -0.0037    -0.0012    -0.0012    -0.0012     0.0000     0.0000     0.0000     0.0000     0.0000 </r>
        <r>    21.4020    -0.0000    -0.0015    -0.0015    -0.0015     0.0000     0.0000     0.0000     0.0000     0.0000 </r>
        <r>    21.5286    -0.0000     0.0209     0.0209     0.0209     0.0000     0.0000     0.0000     0.0000     0.0000 </r>
        <r>    21.6552    -0.0003     0.0258     0.0258     0.0258     0.0000     0.0000     0.0000     0.0000     0.0000 </r>
        <r>    21.7818    -0.0034     0.0064     0.0064     0.0064     0.0000     0.0000     0.0000     0.0000     0.0000 </r>
        <r>    21.9084     0.0791     0.1241     0.1241     0.1241     0.0000     0.0000     0.0000     0.0000     0.0000 </r>
        <r>    22.0350     0.0438     0.0465     0.0465     0.0465     0.0000     0.0000     0.0000     0.0000     0.0000 </r>
        <r>    22.1615    -0.0034    -0.0039    -0.0039    -0.0039     0.0000     0.0000     0.0000     0.0000     0.0000 </r>
        <r>    22.2881    -0.0004    -0.0006    -0.0006    -0.0006     0.0000     0.0000     0.0000     0.0000     0.0000 </r>
        <r>    22.4147     0.0002    -0.0027    -0.0027    -0.0027     0.0000     0.0000     0.0000     0.0000     0.0000 </r>
        <r>    22.5413     0.0615     0.1120     0.1120     0.1120     0.0000     0.0000     0.0000     0.0000     0.0000 </r>
        <r>    22.6679     0.0151     0.0598     0.0598     0.0598     0.0000     0.0000     0.0000     0.0000     0.0000 </r>
        <r>    22.7944    -0.0013    -0.0048    -0.0048    -0.0048     0.0000     0.0000     0.0000     0.0000     0.0000 </r>
        <r>    22.9210     0.0047     0.0022     0.0022     0.0022     0.0000     0.0000     0.0000     0.0000     0.0000 </r>
        <r>    23.0476    -0.0007     0.0253     0.0253     0.0253     0.0000     0.0000     0.0000     0.0000     0.0000 </r>
        <r>    23.1742     0.0156     0.2166     0.2166     0.2166     0.0000     0.0000     0.0000     0.0000     0.0000 </r>
        <r>    23.3008     0.0537     0.1737     0.1737     0.1737     0.0000     0.0000     0.0000     0.0000     0.0000 </r>
        <r>    23.4274    -0.0005    -0.0036    -0.0036    -0.0036     0.0000     0.0000     0.0000     0.0000     0.0000 </r>
        <r>    23.5539    -0.0039    -0.0047    -0.0047    -0.0047     0.0000     0.0000     0.0000     0.0000     0.0000 </r>
        <r>    23.6805     0.0406     0.0451     0.0451     0.0451     0.0000     0.0000     0.0000     0.0000     0.0000 </r>
        <r>    23.8071     0.1136     0.1102     0.1102     0.1102     0.0000     0.0000     0.0000     0.0000     0.0000 </r>
        <r>    23.9337     0.0149     0.0083     0.0083     0.0083     0.0000     0.0000     0.0000     0.0000     0.0000 </r>
        <r>    24.0603     0.0507     0.0352     0.0352     0.0352     0.0000     0.0000     0.0000     0.0000     0.0000 </r>
        <r>    24.1868     0.0273     0.0219     0.0219     0.0219     0.0000     0.0000     0.0000     0.0000     0.0000 </r>
        <r>    24.3134     0.0293     0.0049     0.0049     0.0049     0.0000     0.0000     0.0000     0.0000     0.0000 </r>
        <r>    24.4400     0.0868     0.0150     0.0150     0.0150     0.0000     0.0000     0.0000     0.0000     0.0000 </r>
        <r>    24.5666    -0.0018     0.0206     0.0206     0.0206     0.0000     0.0000     0.0000     0.0000     0.0000 </r>
        <r>    24.6932    -0.0004     0.0601     0.0601     0.0601     0.0000     0.0000     0.0000     0.0000     0.0000 </r>
        <r>    24.8197    -0.0000    -0.0019    -0.0019    -0.0019     0.0000     0.0000     0.0000     0.0000     0.0000 </r>
        <r>    24.9463    -0.0000     0.0072     0.0072     0.0072     0.0000     0.0000     0.0000     0.0000     0.0000 </r>
        <r>    25.0729     0.0000     0.0392     0.0392     0.0392     0.0000     0.0000     0.0000     0.0000     0.0000 </r>
        <r>    25.1995    -0.0000     0.0009     0.0009     0.0009     0.0000     0.0000     0.0000     0.0000     0.0000 </r>
        <r>    25.3261    -0.0000    -0.0003    -0.0003    -0.0003     0.0000     0.0000     0.0000     0.0000     0.0000 </r>
        <r>    25.4527    -0.0000    -0.0009    -0.0009    -0.0009     0.0000     0.0000     0.0000     0.0000     0.0000 </r>
        <r>    25.5792     0.0000     0.0059     0.0059     0.0059     0.0000     0.0000     0.0000     0.0000     0.0000 </r>
        <r>    25.7058     0.0000     0.0774     0.0774     0.0774     0.0000     0.0000     0.0000     0.0000     0.0000 </r>
        <r>    25.8324     0.0000     0.0078     0.0078     0.0078     0.0000     0.0000     0.0000     0.0000     0.0000 </r>
        <r>    25.9590    -0.0000    -0.0010    -0.0010    -0.0010     0.0000     0.0000     0.0000     0.0000     0.0000 </r>
        <r>    26.0856    -0.0000    -0.0000    -0.0000    -0.0000     0.0000     0.0000     0.0000     0.0000     0.0000 </r>
        <r>    26.2121    -0.0000    -0.0000    -0.0000    -0.0000     0.0000     0.0000     0.0000     0.0000     0.0000 </r>
        <r>    26.3387    -0.0000    -0.0000    -0.0000    -0.0000     0.0000     0.0000     0.0000     0.0000     0.0000 </r>
        <r>    26.4653     0.0000     0.0000     0.0000     0.0000     0.0000     0.0000     0.0000     0.0000     0.0000 </r>
        <r>    26.5919     0.0000     0.0000     0.0000     0.0000     0.0000     0.0000     0.0000     0.0000     0.0000 </r>
        <r>    26.7185     0.0000     0.0000     0.0000     0.0000     0.0000     0.0000     0.0000     0.0000     0.0000 </r>
        <r>    26.8451     0.0000     0.0000     0.0000     0.0000     0.0000     0.0000     0.0000     0.0000     0.0000 </r>
        <r>    26.9716     0.0000     0.0000     0.0000     0.0000     0.0000     0.0000     0.0000     0.0000     0.0000 </r>
        <r>    27.0982     0.0000     0.0000     0.0000     0.0000     0.0000     0.0000     0.0000     0.0000     0.0000 </r>
        <r>    27.2248     0.0000     0.0000     0.0000     0.0000     0.0000     0.0000     0.0000     0.0000     0.0000 </r>
        <r>    27.3514     0.0000     0.0000     0.0000     0.0000     0.0000     0.0000     0.0000     0.0000     0.0000 </r>
        <r>    27.4780    -0.0000    -0.0000    -0.0000    -0.0000     0.0000     0.0000     0.0000     0.0000     0.0000 </r>
        <r>    27.6045    -0.0000    -0.0000    -0.0000    -0.0000     0.0000     0.0000     0.0000     0.0000     0.0000 </r>
        <r>    27.7311    -0.0000    -0.0000    -0.0000    -0.0000     0.0000     0.0000     0.0000     0.0000     0.0000 </r>
        <r>    27.8577    -0.0000    -0.0000    -0.0000    -0.0000     0.0000     0.0000     0.0000     0.0000     0.0000 </r>
        <r>    27.9843    -0.0000    -0.0000    -0.0000    -0.0000     0.0000     0.0000     0.0000     0.0000     0.0000 </r>
        <r>    28.1109    -0.0000    -0.0012    -0.0012    -0.0012     0.0000     0.0000     0.0000     0.0000     0.0000 </r>
        <r>    28.2375     0.0004     0.0116     0.0116     0.0116     0.0000     0.0000     0.0000     0.0000     0.0000 </r>
        <r>    28.3640     0.0021     0.0570     0.0570     0.0570     0.0000     0.0000     0.0000     0.0000     0.0000 </r>
        <r>    28.4906     0.0000     0.0010     0.0010     0.0010     0.0000     0.0000     0.0000     0.0000     0.0000 </r>
        <r>    28.6172    -0.0000    -0.0004    -0.0004    -0.0004     0.0000     0.0000     0.0000     0.0000     0.0000 </r>
        <r>    28.7438    -0.0000    -0.0000    -0.0000    -0.0000     0.0000     0.0000     0.0000     0.0000     0.0000 </r>
        <r>    28.8704    -0.0000    -0.0000    -0.0000    -0.0000     0.0000     0.0000     0.0000     0.0000     0.0000 </r>
        <r>    28.9969    -0.0000    -0.0000    -0.0000    -0.0000     0.0000     0.0000     0.0000     0.0000     0.0000 </r>
        <r>    29.1235     0.0000     0.0000     0.0000     0.0000     0.0000     0.0000     0.0000     0.0000     0.0000 </r>
        <r>    29.2501     0.0000     0.0000     0.0000     0.0000     0.0000     0.0000     0.0000     0.0000     0.0000 </r>
        <r>    29.3767     0.0000     0.0000     0.0000     0.0000     0.0000     0.0000     0.0000     0.0000     0.0000 </r>
        <r>    29.5033     0.0000     0.0000     0.0000     0.0000     0.0000     0.0000     0.0000     0.0000     0.0000 </r>
        <r>    29.6299     0.0000     0.0000     0.0000     0.0000     0.0000     0.0000     0.0000     0.0000     0.0000 </r>
        <r>    29.7564     0.0000     0.0000     0.0000     0.0000     0.0000     0.0000     0.0000     0.0000     0.0000 </r>
        <r>    29.8830     0.0000     0.0000     0.0000     0.0000     0.0000     0.0000     0.0000     0.0000     0.0000 </r>
        <r>    30.0096     0.0000     0.0000     0.0000     0.0000     0.0000     0.0000     0.0000     0.0000     0.0000 </r>
       </set>
      </set>
     </set>
    </array>
   </partial>
  </dos>
  <projected>
   <eigenvalues>
    <array>
     <dimension dim="1">band</dimension>
     <dimension dim="2">kpoint</dimension>
     <dimension dim="3">spin</dimension>
     <field>eigene</field>
     <field>occ</field>
     <set>
      <set comment="spin 1">
       <set comment="kpoint 1">
        <r>   -6.2388    1.0000 </r>
        <r>   21.8183    0.0000 </r>
        <r>   21.8183    0.0000 </r>
        <r>   21.8183    0.0000 </r>
        <r>   22.7384    0.0000 </r>
        <r>   22.7384    0.0000 </r>
       </set>
       <set comment="kpoint 2">
        <r>   -5.3607    1.0000 </r>
        <r>   15.1073    0.0000 </r>
        <r>   20.0436    0.0000 </r>
        <r>   20.0436    0.0000 </r>
        <r>   23.9534    0.0000 </r>
        <r>   24.9936    0.0000 </r>
       </set>
       <set comment="kpoint 3">
        <r>   -2.7345    1.0000 </r>
        <r>    7.7803    1.0000 </r>
        <r>   19.1587    0.0000 </r>
        <r>   19.1587    0.0000 </r>
        <r>   22.9606    0.0000 </r>
        <r>   23.7133    0.0000 </r>
       </set>
       <set comment="kpoint 4">
        <r>    1.2508    1.0000 </r>
        <r>    2.0828    1.0000 </r>
        <r>   19.1415    0.0000 </r>
        <r>   19.1415    0.0000 </r>
        <r>   21.6002    0.0000 </r>
        <r>   21.6002    0.0000 </r>
       </set>
       <set comment="kpoint 5">
        <r>   -5.0680    1.0000 </r>
        <r>   17.4645    0.0000 </r>
        <r>   17.4645    0.0000 </r>
        <r>   19.1558    0.0000 </r>
        <r>   19.4389    0.0000 </r>
        <r>   22.8701    0.0000 </r>
       </set>
       <set comment="kpoint 6">
        <r>   -3.0244    1.0000 </r>
        <r>   10.8283   -0.0000 </r>
        <r>   16.2055    0.0000 </r>
        <r>   16.8628    0.0000 </r>
        <r>   19.1361    0.0000 </r>
        <r>   23.7077    0.0000 </r>
       </set>
       <set comment="kpoint 7">
        <r>    0.7395    1.0000 </r>
        <r>    4.3256    1.0000 </r>
        <r>   14.3284    0.0000 </r>
        <r>   16.4281    0.0000 </r>
        <r>   19.2199    0.0000 </r>
        <r>   25.6450    0.0000 </r>
       </set>
       <set comment="kpoint 8">
        <r>   -0.7000    1.0000 </r>
        <r>    6.3280    1.0000 </r>
        <r>   13.0644    0.0000 </r>
        <r>   18.0664    0.0000 </r>
        <r>   20.9982    0.0000 </r>
        <r>   24.5984    0.0000 </r>
       </set>
       <set comment="kpoint 9">
        <r>   -3.8998    1.0000 </r>
        <r>   12.8808    0.0000 </r>
        <r>   13.7135    0.0000 </r>
        <r>   20.7059    0.0000 </r>
        <r>   24.0805    0.0000 </r>
        <r>   24.8604    0.0000 </r>
       </set>
       <set comment="kpoint 10">
        <r>   -1.5669    1.0000 </r>
        <r>   12.1587   -0.0000 </r>
        <r>   14.4270    0.0000 </r>
        <r>   14.4270    0.0000 </r>
        <r>   15.8464    0.0000 </r>
        <r>   18.3076    0.0000 </r>
       </set>
       <set comment="kpoint 11">
        <r>    1.6238    1.0000 </r>
        <r>    8.2391    1.0000 </r>
        <r>    8.9718    1.0000 </r>
        <r>   14.1623    0.0000 </r>
        <r>   16.7441    0.0000 </r>
        <r>   21.8901    0.0000 </r>
       </set>
       <set comment="kpoint 12">
        <r>    3.0408    1.0000 </r>
        <r>    6.1080    1.0000 </r>
        <r>    7.2323    1.0000 </r>
        <r>   15.4367    0.0000 </r>
        <r>   18.1761    0.0000 </r>
        <r>   28.2835    0.0000 </r>
       </set>
       <set comment="kpoint 13">
        <r>    3.8159    1.0000 </r>
        <r>    4.7339    1.0000 </r>
        <r>   13.3736    0.0000 </r>
        <r>   13.3736    0.0000 </r>
        <r>   14.6903    0.0000 </r>
        <r>   17.1943    0.0000 </r>
       </set>
       <set comment="kpoint 14">
        <r>   -0.4047    1.0000 </r>
        <r>    9.5108    1.0348 </r>
        <r>   10.4861   -0.0000 </r>
        <r>   13.4618    0.0000 </r>
        <r>   22.5389    0.0000 </r>
        <r>   23.2108    0.0000 </r>
       </set>
       <set comment="kpoint 15">
        <r>    3.6101    1.0000 </r>
        <r>    4.3204    1.0000 </r>
        <r>   10.5129   -0.0000 </r>
        <r>   11.4072   -0.0000 </r>
        <r>   23.1114    0.0000 </r>
        <r>   24.3448    0.0000 </r>
       </set>
       <set comment="kpoint 16">
        <r>    4.9658    1.0000 </r>
        <r>    5.8476    1.0000 </r>
        <r>    8.3654    1.0000 </r>
        <r>    9.6049    0.6805 </r>
        <r>   21.5368    0.0000 </r>
        <r>   22.5001    0.0000 </r>
       </set>
      </set>
     </set>
    </array>
   </eigenvalues>
   <array>
    <dimension dim="1">ion</dimension>
    <dimension dim="2">band</dimension>
    <dimension dim="3">kpoint</dimension>
    <dimension dim="4">spin</dimension>
    <field>    s</field>
    <field>   py</field>
    <field>   pz</field>
    <field>   px</field>
    <field>  dxy</field>
    <field>  dyz</field>
    <field>  dz2</field>
    <field>  dxz</field>
    <field>x2-y2</field>
    <set>
     <set comment="spin1">
      <set comment="kpoint 1">
       <set comment="band 1">
        <r>  0.3878  0.0000  0.0000  0.0000  0.0000  0.0000  0.0000  0.0000  0.0000 </r>
       </set>
       <set comment="band 2">
        <r>  0.0000  0.2243  0.2331  0.2193  0.0000  0.0000  0.0000  0.0000  0.0000 </r>
       </set>
       <set comment="band 3">
        <r>  0.0000  0.2601  0.0134  0.4032  0.0000  0.0000  0.0000  0.0000  0.0000 </r>
       </set>
       <set comment="band 4">
        <r>  0.0000  0.1923  0.4302  0.0542  0.0000  0.0000  0.0000  0.0000  0.0000 </r>
       </set>
       <set comment="band 5">
        <r>  0.0000  0.0000  0.0000  0.0000  0.0000  0.0000  0.0000  0.0000  0.0000 </r>
       </set>
       <set comment="band 6">
        <r>  0.0000  0.0000  0.0000  0.0000  0.0000  0.0000  0.0000  0.0000  0.0000 </r>
       </set>
      </set>
      <set comment="kpoint 2">
       <set comment="band 1">
        <r>  0.3700  0.0065  0.0065  0.0065  0.0000  0.0000  0.0000  0.0000  0.0000 </r>
       </set>
       <set comment="band 2">
        <r>  0.0513  0.1001  0.1001  0.1001  0.0000  0.0000  0.0000  0.0000  0.0000 </r>
       </set>
       <set comment="band 3">
        <r>  0.0000  0.0809  0.2952  0.0799  0.0000  0.0000  0.0000  0.0000  0.0000 </r>
       </set>
       <set comment="band 4">
        <r>  0.0000  0.2231  0.0088  0.2241  0.0000  0.0000  0.0000  0.0000  0.0000 </r>
       </set>
       <set comment="band 5">
        <r>  0.0862  0.0679  0.0666  0.0393  0.0000  0.0000  0.0000  0.0000  0.0000 </r>
       </set>
       <set comment="band 6">
        <r>  0.0000  0.1098  0.1240  0.0043  0.0000  0.0000  0.0000  0.0000  0.0000 </r>
       </set>
      </set>
      <set comment="kpoint 3">
       <set comment="band 1">
        <r>  0.3238  0.0233  0.0233  0.0233  0.0000  0.0000  0.0000  0.0000  0.0000 </r>
       </set>
       <set comment="band 2">
        <r>  0.1227  0.0803  0.0803  0.0803  0.0000  0.0000  0.0000  0.0000  0.0000 </r>
       </set>
       <set comment="band 3">
        <r>  0.0000  0.0885  0.3424  0.0874  0.0000  0.0000  0.0000  0.0000  0.0000 </r>
       </set>
       <set comment="band 4">
        <r>  0.0000  0.2570  0.0031  0.2581  0.0000  0.0000  0.0000  0.0000  0.0000 </r>
       </set>
       <set comment="band 5">
        <r>  0.0000  0.0454  0.0319  0.0165  0.0000  0.0000  0.0000  0.0000  0.0000 </r>
       </set>
       <set comment="band 6">
        <r>  0.1924  0.0166  0.0171  0.0064  0.0000  0.0000  0.0000  0.0000  0.0000 </r>
       </set>
      </set>
      <set comment="kpoint 4">
       <set comment="band 1">
        <r>  0.4549  0.0000  0.0000  0.0000  0.0000  0.0000  0.0000  0.0000  0.0000 </r>
       </set>
       <set comment="band 2">
        <r>  0.0000  0.1042  0.1042  0.1042  0.0000  0.0000  0.0000  0.0000  0.0000 </r>
       </set>
       <set comment="band 3">
        <r>  0.0000  0.1044  0.4119  0.1016  0.0000  0.0000  0.0000  0.0000  0.0000 </r>
       </set>
       <set comment="band 4">
        <r>  0.0000  0.3076  0.0000  0.3103  0.0000  0.0000  0.0000  0.0000  0.0000 </r>
       </set>
       <set comment="band 5">
        <r>  0.0000  0.0000  0.0000  0.0000  0.0000  0.0000  0.0000  0.0000  0.0000 </r>
       </set>
       <set comment="band 6">
        <r>  0.0000  0.0000  0.0000  0.0000  0.0000  0.0000  0.0000  0.0000  0.0000 </r>
       </set>
      </set>
      <set comment="kpoint 5">
       <set comment="band 1">
        <r>  0.3638  0.0264  0.0000  0.0000  0.0000  0.0000  0.0000  0.0000  0.0000 </r>
       </set>
       <set comment="band 2">
        <r>  0.0000  0.0000  0.2116  0.2114  0.0000  0.0000  0.0000  0.0000  0.0000 </r>
       </set>
       <set comment="band 3">
        <r>  0.0000  0.0000  0.2114  0.2116  0.0000  0.0000  0.0000  0.0000  0.0000 </r>
       </set>
       <set comment="band 4">
        <r>  0.0000  0.0000  0.0000  0.0000  0.0000  0.0000  0.0000  0.0000  0.0000 </r>
       </set>
       <set comment="band 5">
        <r>  0.1618  0.5274  0.0000  0.0000  0.0000  0.0000  0.0000  0.0000  0.0000 </r>
       </set>
       <set comment="band 6">
        <r>  0.0126  0.0041  0.0000  0.0000  0.0000  0.0000  0.0000  0.0000  0.0000 </r>
       </set>
      </set>
      <set comment="kpoint 6">
       <set comment="band 1">
        <r>  0.3254  0.0561  0.0058  0.0058  0.0000  0.0000  0.0000  0.0000  0.0000 </r>
       </set>
       <set comment="band 2">
        <r>  0.0880  0.0417  0.1148  0.1148  0.0000  0.0000  0.0000  0.0000  0.0000 </r>
       </set>
       <set comment="band 3">
        <r>  0.0000  0.0000  0.2205  0.2205  0.0000  0.0000  0.0000  0.0000  0.0000 </r>
       </set>
       <set comment="band 4">
        <r>  0.1257  0.3397  0.0172  0.0172  0.0000  0.0000  0.0000  0.0000  0.0000 </r>
       </set>
       <set comment="band 5">
        <r>  0.0360  0.0014  0.0025  0.0025  0.0000  0.0000  0.0000  0.0000  0.0000 </r>
       </set>
       <set comment="band 6">
        <r>  0.0209  0.0393  0.1009  0.1009  0.0000  0.0000  0.0000  0.0000  0.0000 </r>
       </set>
      </set>
      <set comment="kpoint 7">
       <set comment="band 1">
        <r>  0.2886  0.0841  0.0150  0.0150  0.0000  0.0000  0.0000  0.0000  0.0000 </r>
       </set>
       <set comment="band 2">
        <r>  0.1407  0.0348  0.0940  0.0940  0.0000  0.0000  0.0000  0.0000  0.0000 </r>
       </set>
       <set comment="band 3">
        <r>  0.1056  0.2452  0.0345  0.0345  0.0000  0.0000  0.0000  0.0000  0.0000 </r>
       </set>
       <set comment="band 4">
        <r>  0.0000  0.0000  0.2270  0.2270  0.0000  0.0000  0.0000  0.0000  0.0000 </r>
       </set>
       <set comment="band 5">
        <r>  0.0852  0.0173  0.0093  0.0093  0.0000  0.0000  0.0000  0.0000  0.0000 </r>
       </set>
       <set comment="band 6">
        <r>  0.0000  0.0000  0.0762  0.0762  0.0000  0.0000  0.0000  0.0000  0.0000 </r>
       </set>
      </set>
      <set comment="kpoint 8">
       <set comment="band 1">
        <r>  0.2937  0.0044  0.0492  0.0492  0.0000  0.0000  0.0000  0.0000  0.0000 </r>
       </set>
       <set comment="band 2">
        <r>  0.1280  0.1395  0.0480  0.0480  0.0000  0.0000  0.0000  0.0000  0.0000 </r>
       </set>
       <set comment="band 3">
        <r>  0.1068  0.1735  0.0603  0.0603  0.0000  0.0000  0.0000  0.0000  0.0000 </r>
       </set>
       <set comment="band 4">
        <r>  0.0000  0.0000  0.2365  0.2365  0.0000  0.0000  0.0000  0.0000  0.0000 </r>
       </set>
       <set comment="band 5">
        <r>  0.0781  0.0076  0.0333  0.0333  0.0000  0.0000  0.0000  0.0000  0.0000 </r>
       </set>
       <set comment="band 6">
        <r>  0.0000  0.0000  0.0664  0.0664  0.0000  0.0000  0.0000  0.0000  0.0000 </r>
       </set>
      </set>
      <set comment="kpoint 9">
       <set comment="band 1">
        <r>  0.3419  0.0000  0.0250  0.0250  0.0000  0.0000  0.0000  0.0000  0.0000 </r>
       </set>
       <set comment="band 2">
        <r>  0.0000  0.2857  0.0000  0.0000  0.0000  0.0000  0.0000  0.0000  0.0000 </r>
       </set>
       <set comment="band 3">
        <r>  0.1520  0.0000  0.1542  0.1542  0.0000  0.0000  0.0000  0.0000  0.0000 </r>
       </set>
       <set comment="band 4">
        <r>  0.0000  0.0000  0.2899  0.2899  0.0000  0.0000  0.0000  0.0000  0.0000 </r>
       </set>
       <set comment="band 5">
        <r>  0.0513  0.0000  0.0573  0.0573  0.0000  0.0000  0.0000  0.0000  0.0000 </r>
       </set>
       <set comment="band 6">
        <r>  0.0000  0.0000  0.0000  0.0000  0.0000  0.0000  0.0000  0.0000  0.0000 </r>
       </set>
      </set>
      <set comment="kpoint 10">
       <set comment="band 1">
        <r>  0.2951  0.0988  0.0000  0.0000  0.0000  0.0000  0.0000  0.0000  0.0000 </r>
       </set>
       <set comment="band 2">
        <r>  0.1781  0.2680  0.0000  0.0000  0.0000  0.0000  0.0000  0.0000  0.0000 </r>
       </set>
       <set comment="band 3">
        <r>  0.0000  0.0000  0.2279  0.2278  0.0000  0.0000  0.0000  0.0000  0.0000 </r>
       </set>
       <set comment="band 4">
        <r>  0.0000  0.0000  0.2278  0.2279  0.0000  0.0000  0.0000  0.0000  0.0000 </r>
       </set>
       <set comment="band 5">
        <r>  0.0000  0.0000  0.0000  0.0000  0.0000  0.0000  0.0000  0.0000  0.0000 </r>
       </set>
       <set comment="band 6">
        <r>  0.2185  0.0371  0.0000  0.0000  0.0000  0.0000  0.0000  0.0000  0.0000 </r>
       </set>
      </set>
      <set comment="kpoint 11">
       <set comment="band 1">
        <r>  0.2375  0.1493  0.0038  0.0038  0.0000  0.0000  0.0000  0.0000  0.0000 </r>
       </set>
       <set comment="band 2">
        <r>  0.2695  0.1219  0.0418  0.0418  0.0000  0.0000  0.0000  0.0000  0.0000 </r>
       </set>
       <set comment="band 3">
        <r>  0.0169  0.0764  0.0938  0.0938  0.0000  0.0000  0.0000  0.0000  0.0000 </r>
       </set>
       <set comment="band 4">
        <r>  0.0000  0.0000  0.2310  0.2310  0.0000  0.0000  0.0000  0.0000  0.0000 </r>
       </set>
       <set comment="band 5">
        <r>  0.1216  0.0046  0.0003  0.0003  0.0000  0.0000  0.0000  0.0000  0.0000 </r>
       </set>
       <set comment="band 6">
        <r>  0.0660  0.0061  0.1027  0.1027  0.0000  0.0000  0.0000  0.0000  0.0000 </r>
       </set>
      </set>
      <set comment="kpoint 12">
       <set comment="band 1">
        <r>  0.2634  0.0000  0.0732  0.0732  0.0000  0.0000  0.0000  0.0000  0.0000 </r>
       </set>
       <set comment="band 2">
        <r>  0.0000  0.3272  0.0000  0.0000  0.0000  0.0000  0.0000  0.0000  0.0000 </r>
       </set>
       <set comment="band 3">
        <r>  0.2843  0.0000  0.0668  0.0668  0.0000  0.0000  0.0000  0.0000  0.0000 </r>
       </set>
       <set comment="band 4">
        <r>  0.0000  0.0000  0.2275  0.2275  0.0000  0.0000  0.0000  0.0000  0.0000 </r>
       </set>
       <set comment="band 5">
        <r>  0.1235  0.0000  0.0112  0.0112  0.0000  0.0000  0.0000  0.0000  0.0000 </r>
       </set>
       <set comment="band 6">
        <r>  0.0029  0.0000  0.1162  0.1162  0.0000  0.0000  0.0000  0.0000  0.0000 </r>
       </set>
      </set>
      <set comment="kpoint 13">
       <set comment="band 1">
        <r>  0.0000  0.3491  0.0000  0.0000  0.0000  0.0000  0.0000  0.0000  0.0000 </r>
       </set>
       <set comment="band 2">
        <r>  0.4577  0.0000  0.0000  0.0000  0.0000  0.0000  0.0000  0.0000  0.0000 </r>
       </set>
       <set comment="band 3">
        <r>  0.0000  0.0000  0.2351  0.2354  0.0000  0.0000  0.0000  0.0000  0.0000 </r>
       </set>
       <set comment="band 4">
        <r>  0.0000  0.0000  0.2354  0.2351  0.0000  0.0000  0.0000  0.0000  0.0000 </r>
       </set>
       <set comment="band 5">
        <r>  0.0000  0.0000  0.0000  0.0000  0.0000  0.0000  0.0000  0.0000  0.0000 </r>
       </set>
       <set comment="band 6">
        <r>  0.2871  0.0000  0.0000  0.0000  0.0000  0.0000  0.0000  0.0000  0.0000 </r>
       </set>
      </set>
      <set comment="kpoint 14">
       <set comment="band 1">
        <r>  0.2809  0.0940  0.0000  0.0206  0.0000  0.0000  0.0000  0.0000  0.0000 </r>
       </set>
       <set comment="band 2">
        <r>  0.0000  0.0000  0.3030  0.0000  0.0000  0.0000  0.0000  0.0000  0.0000 </r>
       </set>
       <set comment="band 3">
        <r>  0.2527  0.0788  0.0000  0.1530  0.0000  0.0000  0.0000  0.0000  0.0000 </r>
       </set>
       <set comment="band 4">
        <r>  0.0560  0.1957  0.0000  0.0773  0.0000  0.0000  0.0000  0.0000  0.0000 </r>
       </set>
       <set comment="band 5">
        <r>  0.0000  0.0000  0.1463  0.0000  0.0000  0.0000  0.0000  0.0000  0.0000 </r>
       </set>
       <set comment="band 6">
        <r>  0.0382  0.0404  0.0000  0.2979  0.0000  0.0000  0.0000  0.0000  0.0000 </r>
       </set>
      </set>
      <set comment="kpoint 15">
       <set comment="band 1">
        <r>  0.3789  0.0421  0.0421  0.0000  0.0000  0.0000  0.0000  0.0000  0.0000 </r>
       </set>
       <set comment="band 2">
        <r>  0.0000  0.1095  0.1095  0.0842  0.0000  0.0000  0.0000  0.0000  0.0000 </r>
       </set>
       <set comment="band 3">
        <r>  0.2355  0.1274  0.1274  0.0000  0.0000  0.0000  0.0000  0.0000  0.0000 </r>
       </set>
       <set comment="band 4">
        <r>  0.0000  0.0537  0.0537  0.1479  0.0000  0.0000  0.0000  0.0000  0.0000 </r>
       </set>
       <set comment="band 5">
        <r>  0.0000  0.0328  0.0328  0.2698  0.0000  0.0000  0.0000  0.0000  0.0000 </r>
       </set>
       <set comment="band 6">
        <r>  0.0642  0.0187  0.0187  0.0000  0.0000  0.0000  0.0000  0.0000  0.0000 </r>
       </set>
      </set>
      <set comment="kpoint 16">
       <set comment="band 1">
        <r>  0.0000  0.3378  0.0000  0.0000  0.0000  0.0000  0.0000  0.0000  0.0000 </r>
       </set>
       <set comment="band 2">
        <r>  0.4888  0.0000  0.0000  0.0197  0.0000  0.0000  0.0000  0.0000  0.0000 </r>
       </set>
       <set comment="band 3">
        <r>  0.0000  0.0000  0.3114  0.0000  0.0000  0.0000  0.0000  0.0000  0.0000 </r>
       </set>
       <set comment="band 4">
        <r>  0.1276  0.0000  0.0000  0.2256  0.0000  0.0000  0.0000  0.0000  0.0000 </r>
       </set>
       <set comment="band 5">
        <r>  0.0000  0.0000  0.1536  0.0000  0.0000  0.0000  0.0000  0.0000  0.0000 </r>
       </set>
       <set comment="band 6">
        <r>  0.0854  0.0000  0.0000  0.2683  0.0000  0.0000  0.0000  0.0000  0.0000 </r>
       </set>
      </set>
     </set>
    </set>
   </array>
  </projected>
 </calculation>
 <structure name="finalpos" >
  <crystal>
   <varray name="basis" >
    <v>       1.95000000       1.95000000       0.00000000 </v>
    <v>       0.00000000       1.95000000       1.95000000 </v>
    <v>       1.95000000       0.00000000       1.95000000 </v>
   </varray>
   <i name="volume">     14.82975000 </i>
   <varray name="rec_basis" >
    <v>       0.25641026       0.25641026      -0.25641026 </v>
    <v>      -0.25641026       0.25641026       0.25641026 </v>
    <v>       0.25641026      -0.25641026       0.25641026 </v>
   </varray>
  </crystal>
  <varray name="positions" >
   <v>       0.00000000       0.00000000       0.00000000 </v>
  </varray>
 </structure>
</modeling>
